HEADER
"PSFversion" "1.00"
"net18v" "net18"
"net14v" "net14"
"cv" "c"
"outv" "out"
"av" "a"
"bv" "b"
