HEADER
"PSFversion" "1.00"
"qv" "Q"
"cv" "C"
"av" "A"
"dv" "D"
"bv" "B"
