HEADER
"PSFversion" "1.00"
"outv" "out"
"net7v" "net7"
"net15v" "net15"
"net23v" "net23"
"bv" "b"
"dv" "d"
"av" "a"
"cv" "c"
