HEADER
"PSFversion" "1.00"
"Av" "a"
"Bv" "b"
"Cv" "c"
"Qv" "q"
