HEADER
"PSFversion" "1.00"
"av" "A"
"bv" "B"
"cv" "C"
"qv" "Q"
