HEADER
"PSFversion" "1.00"
"Qv" "q"
"Cv" "c"
"Av" "a"
"Dv" "d"
"Bv" "b"
