HEADER
"PSFversion" "1.00"
"cv" "c"
"net27v" "net27"
"dv" "d"
"av" "a"
"net7v" "net7"
"bv" "b"
"net23v" "net23"
"outv" "out"
