HEADER
"PSFversion" "1.00"
"xi6v" "I6"
"xi6n" "inv_core"
"xi5v" "I5"
"xi5n" "inv_core"
"(FUNCTION (plus (root \"I6/in\")))v" "A"
"(FUNCTION (plus (root \"I5/out\")))v" "Q"
