HEADER
"PSFversion" "1.00"
"net6v" "net6"
"Av" "a"
"Qv" "q"
