HEADER
"PSFversion" "1.00"
"MN0v" "mn0"
"MN0n" "PRIMLIB_nmos4_hspiceD"
"MN1v" "mn1"
"MN1n" "PRIMLIB_nmos4_hspiceD"
"MP0v" "mp0"
"MP0n" "PRIMLIB_pmos4_hspiceD"
"MP1v" "mp1"
"MP1n" "PRIMLIB_pmos4_hspiceD"
"CNv" "(FUNCTION (plus (root \"MP0/G\")))"
"Av" "(FUNCTION (plus (root \"MP1/G\") (root \"MN1/G\")))"
"Qv" "(FUNCTION (plus (root \"MN0/D\") (root \"MP0/D\")))"
"Cv" "(FUNCTION (plus (root \"MN0/G\")))"
