HEADER
"PSFversion" "1.00"
"net10v" "net10"
"net18v" "net18"
"qv" "Q"
"cnv" "CN"
"cv" "C"
"av" "A"
