HEADER
"PSFversion" "1.00"
"net10v" "net10"
"Cv" "c"
"Qv" "q"
"net18v" "net18"
"Av" "a"
"CNv" "cn"
