HEADER
"PSFversion" "1.00"
"mn0v" "MN0"
"mn0n" "PRIMLIB_nmos4_hspiceD"
"mn1v" "MN1"
"mn1n" "PRIMLIB_nmos4_hspiceD"
"mp0v" "MP0"
"mp0n" "PRIMLIB_pmos4_hspiceD"
"mp1v" "MP1"
"mp1n" "PRIMLIB_pmos4_hspiceD"
"(FUNCTION (plus (root \"MP1/G\")))v" "CN"
"(FUNCTION (plus (root \"MN0/G\") (root \"MP0/G\")))v" "A"
"(FUNCTION (plus (root \"MN0/D\") (root \"MP0/D\")))v" "Q"
"(FUNCTION (plus (root \"MN1/G\")))v" "C"
