HEADER
"PSFversion" "1.00"
"Qv" "q"
"Av" "a"
