HEADER
"PSFversion" "1.00"
"net55v" "net55"
"net48v" "net48"
"net63v" "net63"
"net47v" "net47"
"net40v" "net40"
"civ" "CI"
"dv" "D"
"cnv" "CN"
"rnv" "RN"
"cv" "C"
"qnv" "QN"
"qv" "Q"
"net57v" "net57"
