HEADER
"PSFversion" "1.00"
"net55v" "net55"
"net48v" "net48"
"net63v" "net63"
"net47v" "net47"
"net40v" "net40"
"CIv" "ci"
"Dv" "d"
"CNv" "cn"
"RNv" "rn"
"Cv" "c"
"QNv" "qn"
"Qv" "q"
"net57v" "net57"
