HEADER
"PSFversion" "1.00"
"net11v" "net11"
"Qv" "q"
"Sv" "s"
"Bv" "b"
"Av" "a"
