HEADER
"PSFversion" "1.00"
"net11v" "net11"
"qv" "Q"
"sv" "S"
"bv" "B"
"av" "A"
