HEADER
"PSFversion" "1.00"
"I3v" "xi3"
"I3n" "inv_core"
"Av" "(FUNCTION (plus (root \"I3/in\")))"
"Qv" "(FUNCTION (plus (root \"I3/out\")))"
