HEADER
"PSFversion" "1.00"
"xi3v" "I3"
"xi3n" "inv_core"
"(FUNCTION (plus (root \"I3/in\")))v" "A"
"(FUNCTION (plus (root \"I3/out\")))v" "Q"
