HEADER
"PSFversion" "1.00"
"Av" "a"
"Qv" "q"
