HEADER
"PSFversion" "1.00"
"av" "A"
"qv" "Q"
