HEADER
"PSFversion" "1.00"
"net020v" "net020"
"net11v" "net11"
"Av" "a"
"Sv" "s"
"Qv" "q"
"Bv" "b"
