HEADER
"PSFversion" "1.00"
"I9v" "xi9"
"I9n" "inv_core"
"I8v" "xi8"
"I8n" "inv_core"
"I7v" "xi7"
"I7n" "clinv_core"
"I6v" "xi6"
"I6n" "clinv_core"
"Av" "(FUNCTION (plus (root \"I7/A\")))"
"Bv" "(FUNCTION (plus (root \"I6/A\")))"
"Sv" "(FUNCTION (plus (root \"I8/in\") (root \"I6/C\") (root \"I7/CN\")))"
"Qv" "(FUNCTION (plus (root \"I9/out\")))"
