HEADER
"PSFversion" "1.00"
"xi9v" "I9"
"xi9n" "inv_core"
"xi8v" "I8"
"xi8n" "inv_core"
"xi7v" "I7"
"xi7n" "clinv_core"
"xi6v" "I6"
"xi6n" "clinv_core"
"(FUNCTION (plus (root \"I7/A\")))v" "A"
"(FUNCTION (plus (root \"I6/A\")))v" "B"
"(FUNCTION (plus (root \"I8/in\") (root \"I6/C\") (root \"I7/CN\")))v" "S"
"(FUNCTION (plus (root \"I9/out\")))v" "Q"
