HEADER
"PSFversion" "1.00"
"net020v" "net020"
"net11v" "net11"
"av" "A"
"sv" "S"
"qv" "Q"
"bv" "B"
