HEADER
"PSFversion" "1.00"
"net13v" "net13"
"bv" "b"
"av" "a"
"outv" "out"
