HEADER
"PSFversion" "1.00"
"Bv" "b"
"Qv" "q"
"Av" "a"
