HEADER
"PSFversion" "1.00"
"bv" "B"
"qv" "Q"
"av" "A"
