HEADER
"PSFversion" "1.00"
"net10v" "net10"
"net6v" "net6"
"outv" "out"
"av" "a"
"bv" "b"
"cv" "c"
