HEADER
"PSFversion" "1.00"
"bv" "b"
"net35v" "net35"
"net27v" "net27"
"net23v" "net23"
"av" "a"
"outv" "out"
"dv" "d"
"cv" "c"
