HEADER
"PSFversion" "1.00"
"net17v" "net17"
"outv" "out"
"bv" "b"
"av" "a"
