HEADER
"PSFversion" "1.00"
"net18v" "net18"
"net22v" "net22"
"outv" "out"
"bv" "b"
"av" "a"
"cv" "c"
