HEADER
"PSFversion" "1.00"
"I1v" "xi1"
"I1n" "nor3_core"
"Qv" "(FUNCTION (plus (root \"I1/out\")))"
"Bv" "(FUNCTION (plus (root \"I1/b\")))"
"Cv" "(FUNCTION (plus (root \"I1/c\")))"
"Av" "(FUNCTION (plus (root \"I1/a\")))"
