HEADER
"PSFversion" "1.00"
"dv" "d"
"net31v" "net31"
"outv" "out"
"net35v" "net35"
"av" "a"
"net27v" "net27"
"bv" "b"
"cv" "c"
