HEADER
"PSFversion" "1.00"
"outv" "out"
"net11v" "net11"
"net7v" "net7"
"cv" "c"
"av" "a"
"bv" "b"
"net27v" "net27"
"dv" "d"
