HEADER
"PSFversion" "1.00"
"net11v" "net11"
"net15v" "net15"
"net27v" "net27"
"outv" "out"
"dv" "d"
"cv" "c"
"av" "a"
"bv" "b"
