HEADER
"PSFversion" "1.00"
"net26v" "net26"
"net10v" "net10"
"av" "a"
"bv" "b"
"outv" "out"
"cv" "c"
