HEADER
"PSFversion" "1.00"
"I1v" "xi1"
"I1n" "oai31_core"
"Cv" "(FUNCTION (plus (root \"I1/c\")))"
"Av" "(FUNCTION (plus (root \"I1/a\")))"
"Dv" "(FUNCTION (plus (root \"I1/d\")))"
"Bv" "(FUNCTION (plus (root \"I1/b\")))"
"Qv" "(FUNCTION (plus (root \"I1/out\")))"
