HEADER
"PSFversion" "1.00"
"cv" "c"
"net35v" "net35"
"net7v" "net7"
"net11v" "net11"
"outv" "out"
"bv" "b"
"dv" "d"
"av" "a"
