HEADER
"PSFversion" "1.00"
"nx18151v" "nx18151"
"k<6>v" "k_6"
"clkv" "clk"
"nx18072v" "nx18072"
"m<7>v" "m_7"
"m<6>v" "m_6"
"m<5>v" "m_5"
"m<4>v" "m_4"
"m<3>v" "m_3"
"m<2>v" "m_2"
"m<1>v" "m_1"
"m<0>v" "m_0"
"nx18067v" "nx18067"
"nx932v" "nx932"
"nx18387v" "nx18387"
"nx958v" "nx958"
"nx18012v" "nx18012"
"nx962v" "nx962"
"nx17478v" "nx17478"
"nx17543v" "nx17543"
"nx966v" "nx966"
"nx17553v" "nx17553"
"nx990v" "nx990"
"nx17550v" "nx17550"
"k<0>v" "k_0"
"k<3>v" "k_3"
"nx18571v" "nx18571"
"k<2>v" "k_2"
"nx18347v" "nx18347"
"nx18353v" "nx18353"
"nx998v" "nx998"
"nx18513v" "nx18513"
"nx1034v" "nx1034"
"nx18356v" "nx18356"
"nx18381v" "nx18381"
"nx18361v" "nx18361"
"nx17982v" "nx17982"
"nx18392v" "nx18392"
"nx18557v" "nx18557"
"nx18443v" "nx18443"
"nx18459v" "nx18459"
"k<7>v" "k_7"
"k<5>v" "k_5"
"k<4>v" "k_4"
"k<1>v" "k_1"
"nx8v" "nx8"
"nx6v" "nx6"
"nx14v" "nx14"
"nx16v" "nx16"
"c<0>v" "c_0"
"nx24v" "nx24"
"nx17993v" "nx17993"
"nx18019v" "nx18019"
"nx12v" "nx12"
"nx26v" "nx26"
"nx28v" "nx28"
"nx50v" "nx50"
"nx58v" "nx58"
"nx60v" "nx60"
"nx22v" "nx22"
"nx32v" "nx32"
"nx4v" "nx4"
"nx18091v" "nx18091"
"nx18095v" "nx18095"
"nx18105v" "nx18105"
"nx18131v" "nx18131"
"nx18124v" "nx18124"
"nx18167v" "nx18167"
"nx18141v" "nx18141"
"nx18144v" "nx18144"
"nx18170v" "nx18170"
"nx56v" "nx56"
"nx18158v" "nx18158"
"nx18162v" "nx18162"
"nx18164v" "nx18164"
"nx18196v" "nx18196"
"nx130v" "nx130"
"nx18239v" "nx18239"
"nx17805v" "nx17805"
"nx18749v" "nx18749"
"nx1104v" "nx1104"
"nx18658v" "nx18658"
"nx1130v" "nx1130"
"nx1136v" "nx1136"
"nx18675v" "nx18675"
"nx18713v" "nx18713"
"nx17747v" "nx17747"
"nx18721v" "nx18721"
"nx17837v" "nx17837"
"nx18698v" "nx18698"
"nx17758v" "nx17758"
"nx18615v" "nx18615"
"nx17857v" "nx17857"
"nx18617v" "nx18617"
"nx1266v" "nx1266"
"nx18787v" "nx18787"
"nx1224v" "nx1224"
"nx18646v" "nx18646"
"nx1286v" "nx1286"
"nx1272v" "nx1272"
"nx1302v" "nx1302"
"nx1260v" "nx1260"
"nx1326v" "nx1326"
"nx1322v" "nx1322"
"nx1330v" "nx1330"
"nx264v" "nx264"
"nx1310v" "nx1310"
"nx262v" "nx262"
"nx1278v" "nx1278"
"nx278v" "nx278"
"nx1162v" "nx1162"
"nx290v" "nx290"
"nx1246v" "nx1246"
"nx1350v" "nx1350"
"nx1354v" "nx1354"
"nx248v" "nx248"
"nx18446v" "nx18446"
"nx18452v" "nx18452"
"nx1178v" "nx1178"
"nx1438v" "nx1438"
"nx18468v" "nx18468"
"nx1426v" "nx1426"
"nx1406v" "nx1406"
"nx18489v" "nx18489"
"nx18499v" "nx18499"
"nx18508v" "nx18508"
"nx1506v" "nx1506"
"nx18530v" "nx18530"
"nx1456v" "nx1456"
"nx1478v" "nx1478"
"nx1542v" "nx1542"
"nx1536v" "nx1536"
"nx18550v" "nx18550"
"nx18560v" "nx18560"
"nx1548v" "nx1548"
"nx18565v" "nx18565"
"nx388v" "nx388"
"nx18568v" "nx18568"
"nx18574v" "nx18574"
"nx1560v" "nx1560"
"nx1596v" "nx1596"
"nx18592v" "nx18592"
"nx18607v" "nx18607"
"nx1632v" "nx1632"
"nx1468v" "nx1468"
"nx1656v" "nx1656"
"nx1644v" "nx1644"
"nx1586v" "nx1586"
"nx1694v" "nx1694"
"nx1720v" "nx1720"
"nx1708v" "nx1708"
"nx1750v" "nx1750"
"nx1704v" "nx1704"
"nx402v" "nx402"
"nx1722v" "nx1722"
"nx1770v" "nx1770"
"nx1778v" "nx1778"
"nx1498v" "nx1498"
"nx482v" "nx482"
"nx1756v" "nx1756"
"nx1812v" "nx1812"
"nx1834v" "nx1834"
"nx1760v" "nx1760"
"nx1842v" "nx1842"
"nx1888v" "nx1888"
"nx1908v" "nx1908"
"nx1926v" "nx1926"
"nx1934v" "nx1934"
"nx1902v" "nx1902"
"nx17859v" "nx17859"
"nx17901v" "nx17901"
"nx17904v" "nx17904"
"nx17919v" "nx17919"
"nx536v" "nx536"
"nx17927v" "nx17927"
"nx17884v" "nx17884"
"nx470v" "nx470"
"nx17933v" "nx17933"
"nx2068v" "nx2068"
"nx1710v" "nx1710"
"nx1990v" "nx1990"
"nx1590v" "nx1590"
"nx2072v" "nx2072"
"nx2054v" "nx2054"
"nx2148v" "nx2148"
"nx2100v" "nx2100"
"nx2178v" "nx2178"
"nx2220v" "nx2220"
"nx526v" "nx526"
"nx2076v" "nx2076"
"nx2136v" "nx2136"
"nx2266v" "nx2266"
"nx492v" "nx492"
"nx2248v" "nx2248"
"nx618v" "nx618"
"nx2182v" "nx2182"
"nx2320v" "nx2320"
"nx2372v" "nx2372"
"nx2382v" "nx2382"
"nx2276v" "nx2276"
"nx2408v" "nx2408"
"nx2508v" "nx2508"
"nx2444v" "nx2444"
"nx2410v" "nx2410"
"nx17427v" "nx17427"
"nx2288v" "nx2288"
"nx2356v" "nx2356"
"nx610v" "nx610"
"nx656v" "nx656"
"nx672v" "nx672"
"nx682v" "nx682"
"nx684v" "nx684"
"nx2504v" "nx2504"
"nx616v" "nx616"
"nx696v" "nx696"
"nx546v" "nx546"
"nx2340v" "nx2340"
"nx716v" "nx716"
"nx17455v" "nx17455"
"nx2474v" "nx2474"
"nx17457v" "nx17457"
"nx712v" "nx712"
"nx17432v" "nx17432"
"nx690v" "nx690"
"nx17463v" "nx17463"
"nx2440v" "nx2440"
"nx620v" "nx620"
"nx754v" "nx754"
"nx17472v" "nx17472"
"nx17469v" "nx17469"
"nx756v" "nx756"
"nx742v" "nx742"
"nx17421v" "nx17421"
"nx17475v" "nx17475"
"nx17442v" "nx17442"
"nx792v" "nx792"
"nx758v" "nx758"
"nx788v" "nx788"
"nx774v" "nx774"
"nx17467v" "nx17467"
"nx824v" "nx824"
"nx17483v" "nx17483"
"nx17502v" "nx17502"
"nx2242v" "nx2242"
"nx856v" "nx856"
"nx17500v" "nx17500"
"nx794v" "nx794"
"nx472v" "nx472"
"nx874v" "nx874"
"nx868v" "nx868"
"nx680v" "nx680"
"nx912v" "nx912"
"nx17496v" "nx17496"
"nx768v" "nx768"
"nx17490v" "nx17490"
"nx908v" "nx908"
"nx928v" "nx928"
"nx17523v" "nx17523"
"nx944v" "nx944"
"nx17460v" "nx17460"
"nx950v" "nx950"
"nx17508v" "nx17508"
"nx17529v" "nx17529"
"nx17532v" "nx17532"
"nx948v" "nx948"
"nx18337v" "nx18337"
"nx18339v" "nx18339"
"nx18359v" "nx18359"
"nx970v" "nx970"
"c<1>v" "c_1"
"c<2>v" "c_2"
"c<3>v" "c_3"
"c<6>v" "c_6"
"nx18403v" "nx18403"
"nx18379v" "nx18379"
"nx18375v" "nx18375"
"nx1014v" "nx1014"
"nx1038v" "nx1038"
"nx18384v" "nx18384"
"nx18389v" "nx18389"
"c<7>v" "c_7"
"nx1066v" "nx1066"
"nx17871v" "nx17871"
"nx17779v" "nx17779"
"nx17775v" "nx17775"
"$dummy<1>v" "_net0"
"nx1054v" "nx1054"
"nx17632v" "nx17632"
"nx1060v" "nx1060"
"nx17767v" "nx17767"
"nx17802v" "nx17802"
"nx18760v" "nx18760"
"nx17964v" "nx17964"
"nx18737v" "nx18737"
"nx18751v" "nx18751"
"nx1124v" "nx1124"
"nx17958v" "nx17958"
"nx152v" "nx152"
"nx18710v" "nx18710"
"nx132v" "nx132"
"nx166v" "nx166"
"nx18694v" "nx18694"
"nx18691v" "nx18691"
"nx17831v" "nx17831"
"nx178v" "nx178"
"nx18715v" "nx18715"
"nx18717v" "nx18717"
"nx18740v" "nx18740"
"nx18742v" "nx18742"
"nx1152v" "nx1152"
"nx782v" "nx782"
"nx18595v" "nx18595"
"nx17848v" "nx17848"
"nx17865v" "nx17865"
"nx18734v" "nx18734"
"nx1188v" "nx1188"
"nx18629v" "nx18629"
"nx18686v" "nx18686"
"nx1248v" "nx1248"
"nx18660v" "nx18660"
"nx198v" "nx198"
"nx18654v" "nx18654"
"nx18648v" "nx18648"
"nx18650v" "nx18650"
"nx18689v" "nx18689"
"nx222v" "nx222"
"nx1270v" "nx1270"
"nx230v" "nx230"
"nx136v" "nx136"
"nx214v" "nx214"
"nx244v" "nx244"
"nx1346v" "nx1346"
"nx1340v" "nx1340"
"nx270v" "nx270"
"nx1368v" "nx1368"
"nx226v" "nx226"
"nx254v" "nx254"
"nx1312v" "nx1312"
"nx298v" "nx298"
"nx302v" "nx302"
"nx1306v" "nx1306"
"nx310v" "nx310"
"nx18449v" "nx18449"
"nx18455v" "nx18455"
"nx18471v" "nx18471"
"nx18462v" "nx18462"
"nx18465v" "nx18465"
"nx18476v" "nx18476"
"nx18478v" "nx18478"
"nx18516v" "nx18516"
"nx1432v" "nx1432"
"nx18492v" "nx18492"
"nx266v" "nx266"
"nx1462v" "nx1462"
"nx354v" "nx354"
"nx18503v" "nx18503"
"nx1472v" "nx1472"
"nx336v" "nx336"
"nx578v" "nx578"
"nx366v" "nx366"
"nx18555v" "nx18555"
"nx18535v" "nx18535"
"nx18541v" "nx18541"
"nx378v" "nx378"
"nx18563v" "nx18563"
"nx234v" "nx234"
"nx392v" "nx392"
"nx408v" "nx408"
"nx18586v" "nx18586"
"nx18589v" "nx18589"
"nx1422v" "nx1422"
"nx398v" "nx398"
"nx406v" "nx406"
"nx18621v" "nx18621"
"nx1600v" "nx1600"
"nx350v" "nx350"
"nx426v" "nx426"
"nx344v" "nx344"
"nx1440v" "nx1440"
"nx436v" "nx436"
"nx1650v" "nx1650"
"nx420v" "nx420"
"nx416v" "nx416"
"nx1670v" "nx1670"
"nx376v" "nx376"
"nx450v" "nx450"
"nx1726v" "nx1726"
"nx1738v" "nx1738"
"nx440v" "nx440"
"nx384v" "nx384"
"nx434v" "nx434"
"nx452v" "nx452"
"nx1774v" "nx1774"
"nx474v" "nx474"
"nx1384v" "nx1384"
"nx458v" "nx458"
"nx1806v" "nx1806"
"nx486v" "nx486"
"nx446v" "nx446"
"nx430v" "nx430"
"nx1830v" "nx1830"
"nx1840v" "nx1840"
"nx498v" "nx498"
"nx488v" "nx488"
"nx1870v" "nx1870"
"nx1874v" "nx1874"
"nx464v" "nx464"
"nx17876v" "nx17876"
"nx1796v" "nx1796"
"nx510v" "nx510"
"nx1920v" "nx1920"
"nx17893v" "nx17893"
"nx17868v" "nx17868"
"nx478v" "nx478"
"nx18085v" "nx18085"
"nx1954v" "nx1954"
"nx1966v" "nx1966"
"nx1968v" "nx1968"
"nx1578v" "nx1578"
"nx1868v" "nx1868"
"nx1854v" "nx1854"
"nx1944v" "nx1944"
"nx2004v" "nx2004"
"nx2028v" "nx2028"
"nx1986v" "nx1986"
"nx1980v" "nx1980"
"nx560v" "nx560"
"nx568v" "nx568"
"nx574v" "nx574"
"nx2012v" "nx2012"
"nx18005v" "nx18005"
"nx576v" "nx576"
"nx2104v" "nx2104"
"nx530v" "nx530"
"nx2130v" "nx2130"
"nx514v" "nx514"
"nx2154v" "nx2154"
"nx592v" "nx592"
"nx604v" "nx604"
"nx2192v" "nx2192"
"nx2196v" "nx2196"
"nx582v" "nx582"
"nx2032v" "nx2032"
"nx1860v" "nx1860"
"nx606v" "nx606"
"nx2232v" "nx2232"
"nx600v" "nx600"
"nx1624v" "nx1624"
"nx1684v" "nx1684"
"nx614v" "nx614"
"nx2304v" "nx2304"
"nx2246v" "nx2246"
"nx2314v" "nx2314"
"nx622v" "nx622"
"nx2280v" "nx2280"
"nx532v" "nx532"
"nx556v" "nx556"
"nx504v" "nx504"
"nx2318v" "nx2318"
"nx642v" "nx642"
"nx2352v" "nx2352"
"nx634v" "nx634"
"nx2122v" "nx2122"
"nx644v" "nx644"
"nx2140v" "nx2140"
"nx648v" "nx648"
"nx658v" "nx658"
"nx654v" "nx654"
"nx666v" "nx666"
"nx670v" "nx670"
"nx678v" "nx678"
"nx700v" "nx700"
"nx710v" "nx710"
"nx636v" "nx636"
"nx728v" "nx728"
"nx730v" "nx730"
"nx736v" "nx736"
"nx17465v" "nx17465"
"nx752v" "nx752"
"nx744v" "nx744"
"nx662v" "nx662"
"nx628v" "nx628"
"nx17444v" "nx17444"
"nx17424v" "nx17424"
"nx764v" "nx764"
"nx786v" "nx786"
"nx820v" "nx820"
"nx802v" "nx802"
"nx732v" "nx732"
"nx830v" "nx830"
"nx840v" "nx840"
"nx720v" "nx720"
"nx806v" "nx806"
"nx17480v" "nx17480"
"nx920v" "nx920"
"nx850v" "nx850"
"nx17976v" "nx17976"
"nx1052v" "nx1052"
"nx896v" "nx896"
"nx976v" "nx976"
"c<5>v" "c_5"
"c<4>v" "c_4"
"nx984v" "nx984"
"nx17547v" "nx17547"
"nx18244v" "nx18244"
"nx18224v" "nx18224"
"nx18228v" "nx18228"
"nx18263v" "nx18263"
"nx18545v" "nx18545"
"nx18241v" "nx18241"
"nx18282v" "nx18282"
"nx18311v" "nx18311"
"nx18295v" "nx18295"
"nx18342v" "nx18342"
"nx18417v" "nx18417"
"nx18334v" "nx18334"
"nx18314v" "nx18314"
"nx18322v" "nx18322"
"nx18331v" "nx18331"
"nx18409v" "nx18409"
"nx17599v" "nx17599"
"nx17589v" "nx17589"
"nx17520v" "nx17520"
"nx17640v" "nx17640"
"nx17643v" "nx17643"
"nx17518v" "nx17518"
"nx17622v" "nx17622"
"nx17574v" "nx17574"
"nx17536v" "nx17536"
"nx17654v" "nx17654"
"nx17571v" "nx17571"
"nx17637v" "nx17637"
"nx17673v" "nx17673"
"nx17678v" "nx17678"
"nx17682v" "nx17682"
"nx17675v" "nx17675"
"nx17647v" "nx17647"
"nx17695v" "nx17695"
"nx17657v" "nx17657"
"nx17698v" "nx17698"
"nx17704v" "nx17704"
"nx17707v" "nx17707"
"nx17710v" "nx17710"
"nx17635v" "nx17635"
"nx17688v" "nx17688"
"nx17721v" "nx17721"
"nx17701v" "nx17701"
"nx17726v" "nx17726"
"nx17692v" "nx17692"
"nx17712v" "nx17712"
"nx17745v" "nx17745"
"$dummy<5>v" "_net1"
"$dummy<7>v" "_net2"
"nx17660v" "nx17660"
"nx17650v" "nx17650"
"nx17626v" "nx17626"
"$dummy<6>v" "_net3"
"nx17763v" "nx17763"
"nx17715v" "nx17715"
"nx17685v" "nx17685"
"nx18764v" "nx18764"
"$dummy<4>v" "_net4"
"$dummy<3>v" "_net5"
"$dummy<2>v" "_net6"
"$dummy<0>v" "_net7"
"nx1026v" "nx1026"
"nx1078v" "nx1078"
"nx17781v" "nx17781"
"nx1018v" "nx1018"
"nx18728v" "nx18728"
"nx17796v" "nx17796"
"nx18730v" "nx18730"
"nx17966v" "nx17966"
"nx986v" "nx986"
"nx38v" "nx38"
"nx1110v" "nx1110"
"nx18663v" "nx18663"
"nx18671v" "nx18671"
"nx1144v" "nx1144"
"nx1128v" "nx1128"
"nx18725v" "nx18725"
"nx17810v" "nx17810"
"nx100v" "nx100"
"nx18700v" "nx18700"
"nx17446v" "nx17446"
"nx17843v" "nx17843"
"nx1164v" "nx1164"
"nx1184v" "nx1184"
"nx17814v" "nx17814"
"nx1176v" "nx1176"
"nx1148v" "nx1148"
"nx18707v" "nx18707"
"nx208v" "nx208"
"nx17881v" "nx17881"
"nx1212v" "nx1212"
"nx18640v" "nx18640"
"nx218v" "nx218"
"nx18637v" "nx18637"
"nx18643v" "nx18643"
"nx1892v" "nx1892"
"nx432v" "nx432"
"nx508v" "nx508"
"nx1946v" "nx1946"
"nx17887v" "nx17887"
"nx516v" "nx516"
"nx294v" "nx294"
"nx17737v" "nx17737"
"nx17911v" "nx17911"
"nx500v" "nx500"
"nx17907v" "nx17907"
"nx522v" "nx522"
"nx550v" "nx550"
"nx17921v" "nx17921"
"nx552v" "nx552"
"nx558v" "nx558"
"nx17939v" "nx17939"
"nx17914v" "nx17914"
"nx17950v" "nx17950"
"nx17923v" "nx17923"
"nx17942v" "nx17942"
"nx17936v" "nx17936"
"nx17961v" "nx17961"
"nx17978v" "nx17978"
"nx17985v" "nx17985"
"nx17998v" "nx17998"
"nx17995v" "nx17995"
"nx18089v" "nx18089"
"nx18014v" "nx18014"
"nx18001v" "nx18001"
"nx18009v" "nx18009"
"nx18120v" "nx18120"
"nx18007v" "nx18007"
"nx18040v" "nx18040"
"nx18036v" "nx18036"
"nx18030v" "nx18030"
"nx18032v" "nx18032"
"nx18022v" "nx18022"
"nx18025v" "nx18025"
"nx18027v" "nx18027"
"nx18034v" "nx18034"
"nx18212v" "nx18212"
"nx18113v" "nx18113"
"nx18062v" "nx18062"
"nx18047v" "nx18047"
"nx18044v" "nx18044"
"nx18050v" "nx18050"
"nx18060v" "nx18060"
"nx18054v" "nx18054"
"nx18065v" "nx18065"
"nx18214v" "nx18214"
"nx18369v" "nx18369"
"nx18110v" "nx18110"
"nx17898v" "nx17898"
"nx17828v" "nx17828"
"nx18075v" "nx18075"
"nx18077v" "nx18077"
"nx18080v" "nx18080"
"nx64v" "nx64"
"nx44v" "nx44"
"nx18173v" "nx18173"
"nx0v" "nx0"
"nx18098v" "nx18098"
"nx18103v" "nx18103"
"nx62v" "nx62"
"nx18139v" "nx18139"
"nx18198v" "nx18198"
"nx18122v" "nx18122"
"nx92v" "nx92"
"nx18128v" "nx18128"
"nx94v" "nx94"
"nx18183v" "nx18183"
"nx17990v" "nx17990"
"nx18134v" "nx18134"
"nx86v" "nx86"
"nx68v" "nx68"
"nx18148v" "nx18148"
"nx18153v" "nx18153"
"nx42v" "nx42"
"nx120v" "nx120"
"nx126v" "nx126"
"nx18178v" "nx18178"
"nx78v" "nx78"
"nx74v" "nx74"
"nx18176v" "nx18176"
"nx18247v" "nx18247"
"nx18255v" "nx18255"
"nx18193v" "nx18193"
"nx106v" "nx106"
"nx18186v" "nx18186"
"nx18188v" "nx18188"
"nx18206v" "nx18206"
"nx18204v" "nx18204"
"nx18217v" "nx18217"
"nx18260v" "nx18260"
"nx18233v" "nx18233"
"nx18209v" "nx18209"
"nx18277v" "nx18277"
"nx18235v" "nx18235"
"nx17555v" "nx17555"
"nx17561v" "nx17561"
"nx17526v" "nx17526"
"nx17586v" "nx17586"
"nx18329v" "nx18329"
"nx17430v" "nx17430"
"nx17596v" "nx17596"
"nx18250v" "nx18250"
"nx18324v" "nx18324"
"nx18293v" "nx18293"
"nx18287v" "nx18287"
"nx18407v" "nx18407"
"nx18300v" "nx18300"
"nx18266v" "nx18266"
"nx18272v" "nx18272"
"nx18280v" "nx18280"
"nx18308v" "nx18308"
"nx17602v" "nx17602"
"nx18290v" "nx18290"
"nx17539v" "nx17539"
"nx17606v" "nx17606"
"nx18319v" "nx18319"
"nx18303v" "nx18303"
"nx17609v" "nx17609"
"nx18306v" "nx18306"
"nx17615v" "nx17615"
"nx17612v" "nx17612"
"nx17618v" "nx17618"
"nx18401v" "nx18401"
"nx18351v" "nx18351"
"nx17515v" "nx17515"
"nx17629v" "nx17629"
"nx924v" "nx924"
"nx18365v" "nx18365"
"nx1004v" "nx1004"
"nx1012v" "nx1012"
"nx18345v" "nx18345"
"nx18057v" "nx18057"
"nx882v" "nx882"
"nx17558v" "nx17558"
"nx17564v" "nx17564"
"nx940v" "nx940"
"nx18372v" "nx18372"
"nx1048v" "nx1048"
"nx18316v" "nx18316"
"nx1040v" "nx1040"
"nx1072v" "nx1072"
"nx18437v" "nx18437"
"nx1074v" "nx1074"
"nx18414v" "nx18414"
"nx18396v" "nx18396"
"nx18613v" "nx18613"
"nx18420v" "nx18420"
"nx18600v" "nx18600"
"nx18423v" "nx18423"
"nx2v" "nx2"
"nx18525v" "nx18525"
"nx18427v" "nx18427"
"nx18495v" "nx18495"
"nx18486v" "nx18486"
"nx18430v" "nx18430"
"nx18432v" "nx18432"
"nx18440v" "nx18440"
"rstv" "rst"
"nx1402v" "nx1402"
"nx284v" "nx284"
"nx1380v" "nx1380"
"nx326v" "nx326"
"nx256v" "nx256"
"nx1412v" "nx1412"
"nx1388v" "nx1388"
"nx332v" "nx332"
"nx330v" "nx330"
"nx18473v" "nx18473"
"nx280v" "nx280"
"nx1398v" "nx1398"
"nx252v" "nx252"
"nx316v" "nx316"
"nx1446v" "nx1446"
"nx1450v" "nx1450"
"nx1374v" "nx1374"
"nx18632v" "nx18632"
"nx1256v" "nx1256"
"nx362v" "nx362"
"nx18582v" "nx18582"
"nx364v" "nx364"
"nx18528v" "nx18528"
"nx1528v" "nx1528"
"nx18548v" "nx18548"
"nx260v" "nx260"
"nx340v" "nx340"
"nx320v" "nx320"
"nx1372v" "nx1372"
"nx394v" "nx394"
"nx1522v" "nx1522"
"nx18626v" "nx18626"
"nx1532v" "nx1532"
"nx1564v" "nx1564"
"nx380v" "nx380"
"nx1574v" "nx1574"
"nx422v" "nx422"
"nx18635v" "nx18635"
"nx1610v" "nx1610"
"nx18610v" "nx18610"
"nx17853v" "nx17853"
"nx174v" "nx174"
"nx1112v" "nx1112"
"nx18753v" "nx18753"
"nx1252v" "nx1252"
"nx17845v" "nx17845"
"nx170v" "nx170"
"nx17863v" "nx17863"
"nx17874v" "nx17874"
"nx18682v" "nx18682"
"nx162v" "nx162"
"nx17879v" "nx17879"
"nx184v" "nx184"
"nx17756v" "nx17756"
"nx1088v" "nx1088"
"nx17841v" "nx17841"
"nx200v" "nx200"
"nx1296v" "nx1296"
"nx228v" "nx228"
"nx1156v" "nx1156"
"nx17818v" "nx17818"
"nx96v" "nx96"
"nx18666v" "nx18666"
"nx17820v" "nx17820"
"nx146v" "nx146"
"nx17790v" "nx17790"
"nx17787v" "nx17787"
"nx18679v" "nx18679"
"nx80v" "nx80"
"nx190v" "nx190"
"nx108v" "nx108"
"nx1100v" "nx1100"
"nx150v" "nx150"
"nx1126v" "nx1126"
"nx17823v" "nx17823"
"nx1146v" "nx1146"
"nx17835v" "nx17835"
"nx1172v" "nx1172"
"nx17851v" "nx17851"
"nx17793v" "nx17793"
"nx1076v" "nx1076"
"nx1102v" "nx1102"
"nx1116v" "nx1116"
"nx17753v" "nx17753"
"nx1120v" "nx1120"
"nx1092v" "nx1092"
"nx114v" "nx114"
"nx17770v" "nx17770"
"nx17808v" "nx17808"
"nx17723v" "nx17723"
"nx17972v" "nx17972"
"nx888v" "nx888"
"nx956v" "nx956"
"nx17930v" "nx17930"
"nx17784v" "nx17784"
"nx17761v" "nx17761"
"nx17730v" "nx17730"
"nx17751v" "nx17751"
"nx18116v" "nx18116"
"vdd!v" "vdd!"
"gnd!v" "0"
