HEADER
"PSFversion" "1.00"
"xix17445v" "ix17445"
"xix17445n" "XNR22"
"xix17447v" "ix17447"
"xix17447n" "XNR22"
"xix17521v" "ix17521"
"xix17521n" "INV3"
"xix17559v" "ix17559"
"xix17559n" "INV3"
"xix219v" "ix219"
"xix219n" "INV3"
"xix75v" "ix75"
"xix75n" "NOR22"
"xix5v" "ix5"
"xix5n" "NOR22"
"xix17603v" "ix17603"
"xix17603n" "NAND22"
"xix17443v" "ix17443"
"xix17443n" "NAND22"
"xix18788v" "ix18788"
"xix18788n" "BUF2"
"xix2221v" "ix2221"
"xix2221n" "MUX22"
"xix17877v" "ix17877"
"xix17877n" "AOI2111"
"xix18404v" "ix18404"
"xix18404n" "AOI2111"
"xix18500v" "ix18500"
"xix18500n" "AOI2111"
"xix17832v" "ix17832"
"xix17832n" "AOI2111"
"xix18761v" "ix18761"
"xix18761n" "AOI2111"
"xix18701v" "ix18701"
"xix18701n" "AOI2111"
"xix857v" "ix857"
"xix857n" "AOI311"
"xix1073v" "ix1073"
"xix1073n" "AOI311"
"xix1771v" "ix1771"
"xix1771n" "AOI311"
"xix831v" "ix831"
"xix831n" "AOI311"
"xix821v" "ix821"
"xix821n" "AOI311"
"xix209v" "ix209"
"xix209n" "IMUX21"
"xix18245v" "ix18245"
"xix18245n" "IMUX21"
"xix18240v" "ix18240"
"xix18240n" "IMUX21"
"xix18566v" "ix18566"
"xix18566n" "AOI221"
"xix18517v" "ix18517"
"xix18517n" "AOI221"
"xix17872v" "ix17872"
"xix17872n" "AOI221"
"xix17846v" "ix17846"
"xix17846n" "AOI221"
"xix18616v" "ix18616"
"xix18616n" "AOI221"
"xix18618v" "ix18618"
"xix18618n" "AOI221"
"xix17484v" "ix17484"
"xix17484n" "AOI221"
"xix377v" "ix377"
"xix377n" "OAI311"
"xix18388v" "ix18388"
"xix18388n" "OAI311"
"xix1549v" "ix1549"
"xix1549n" "OAI311"
"xix1213v" "ix1213"
"xix1213n" "OAI2111"
"xix2013v" "ix2013"
"xix2013n" "OAI2111"
"xix1499v" "ix1499"
"xix1499n" "OAI2111"
"xix2069v" "ix2069"
"xix2069n" "OAI2111"
"xix311v" "ix311"
"xix311n" "OAI2111"
"xix2029v" "ix2029"
"xix2029n" "OAI2111"
"xix921v" "ix921"
"xix921n" "OAI2111"
"xix1523v" "ix1523"
"xix1523n" "OAI2111"
"xix1537v" "ix1537"
"xix1537n" "OAI211"
"xix1831v" "ix1831"
"xix1831n" "OAI211"
"xix18765v" "ix18765"
"xix18765n" "OAI211"
"xix1225v" "ix1225"
"xix1225n" "OAI211"
"xix18687v" "ix18687"
"xix18687n" "OAI211"
"xix1341v" "ix1341"
"xix1341n" "OAI211"
"xix1089v" "ix1089"
"xix1089n" "OAI211"
"xix967v" "ix967"
"xix967n" "OAI211"
"xix1271v" "ix1271"
"xix1271n" "OAI211"
"xix17731v" "ix17731"
"xix17731n" "OAI211"
"xix1797v" "ix1797"
"xix1797n" "OAI211"
"xix18373v" "ix18373"
"xix18373n" "OAI211"
"xix345v" "ix345"
"xix345n" "OAI211"
"xix1575v" "ix1575"
"xix1575n" "OAI211"
"xix18587v" "ix18587"
"xix18587n" "OAI211"
"xix18256v" "ix18256"
"xix18256n" "OAI211"
"xix1935v" "ix1935"
"xix1935n" "OAI211"
"xix451v" "ix451"
"xix451n" "OAI211"
"xix1813v" "ix1813"
"xix1813n" "OAI211"
"xix18699v" "ix18699"
"xix18699n" "OAI211"
"xix1561v" "ix1561"
"xix1561n" "OAI211"
"xix18051v" "ix18051"
"xix18051n" "OAI211"
"xix441v" "ix441"
"xix441n" "OAI211"
"xix17794v" "ix17794"
"xix17794n" "OAI211"
"xix1247v" "ix1247"
"xix1247n" "OAI211"
"xix2373v" "ix2373"
"xix2373n" "OAI211"
"xix459v" "ix459"
"xix459n" "OAI211"
"xix18251v" "ix18251"
"xix18251n" "OAI211"
"xix18431v" "ix18431"
"xix18431n" "OAI211"
"xix663v" "ix663"
"xix663n" "OAI211"
"xix971v" "ix971"
"xix971n" "OAI211"
"xix261v" "ix261"
"xix261n" "OAI211"
"xix18477v" "ix18477"
"xix18477n" "OAI211"
"xix18213v" "ix18213"
"xix18213n" "OAI211"
"xix18556v" "ix18556"
"xix18556n" "OAI211"
"xix2033v" "ix2033"
"xix2033n" "OAI211"
"xix407v" "ix407"
"xix407n" "OAI211"
"xix18490v" "ix18490"
"xix18490n" "OAI211"
"xix227v" "ix227"
"xix227n" "OAI211"
"xix18078v" "ix18078"
"xix18078n" "OAI211"
"xix2077v" "ix2077"
"xix2077n" "OAI211"
"xix1625v" "ix1625"
"xix1625n" "OAI211"
"xix1727v" "ix1727"
"xix1727n" "NAND31"
"xix1611v" "ix1611"
"xix1611n" "NAND31"
"xix1695v" "ix1695"
"xix1695n" "NAND31"
"xix1657v" "ix1657"
"xix1657n" "NAND31"
"xix2305v" "ix2305"
"xix2305n" "NAND31"
"xix1671v" "ix1671"
"xix1671n" "NAND31"
"xix1591v" "ix1591"
"xix1591n" "NAND31"
"xix2281v" "ix2281"
"xix2281n" "NAND31"
"xix1355v" "ix1355"
"xix1355n" "NAND31"
"xix2267v" "ix2267"
"xix2267n" "NAND31"
"xix1685v" "ix1685"
"xix1685n" "NAND31"
"xix991v" "ix991"
"xix991n" "NAND31"
"xix2141v" "ix2141"
"xix2141n" "NAND31"
"xix1121v" "ix1121"
"xix1121n" "NAND31"
"xix1709v" "ix1709"
"xix1709n" "NAND31"
"xix1909v" "ix1909"
"xix1909n" "NAND31"
"xix1739v" "ix1739"
"xix1739n" "NAND31"
"xix1385v" "ix1385"
"xix1385n" "NAND31"
"xix909v" "ix909"
"xix909n" "NAND31"
"xix1601v" "ix1601"
"xix1601n" "NAND31"
"xix1645v" "ix1645"
"xix1645n" "NAND31"
"xix1565v" "ix1565"
"xix1565n" "NAND31"
"xix1633v" "ix1633"
"xix1633n" "NAND31"
"xix18410v" "ix18410"
"xix18410n" "NAND31"
"xix2233v" "ix2233"
"xix2233n" "NAND31"
"xix1035v" "ix1035"
"xix1035n" "NAND31"
"xix2055v" "ix2055"
"xix2055n" "NAND31"
"xix295v" "ix295"
"xix295n" "NAND31"
"xix1327v" "ix1327"
"xix1327n" "NAND31"
"xix18041v" "ix18041"
"xix18041n" "AOI211"
"xix537v" "ix537"
"xix537n" "AOI211"
"xix945v" "ix945"
"xix945n" "AOI211"
"xix1137v" "ix1137"
"xix1137n" "AOI211"
"xix17776v" "ix17776"
"xix17776n" "AOI211"
"xix17811v" "ix17811"
"xix17811n" "AOI211"
"xix18048v" "ix18048"
"xix18048n" "AOI211"
"xix1257v" "ix1257"
"xix1257n" "AOI211"
"xix18397v" "ix18397"
"xix18397n" "AOI211"
"xix2197v" "ix2197"
"xix2197n" "AOI211"
"xix2193v" "ix2193"
"xix2193n" "AOI211"
"xix18291v" "ix18291"
"xix18291n" "AOI211"
"xix1579v" "ix1579"
"xix1579n" "AOI211"
"xix235v" "ix235"
"xix235n" "AOI211"
"xix825v" "ix825"
"xix825n" "AOI211"
"xix875v" "ix875"
"xix875n" "AOI211"
"xix17727v" "ix17727"
"xix17727n" "AOI211"
"xix1267v" "ix1267"
"xix1267n" "AOI211"
"xix1775v" "ix1775"
"xix1775n" "AOI211"
"xix18479v" "ix18479"
"xix18479n" "AOI211"
"xix1331v" "ix1331"
"xix1331n" "AOI211"
"xix421v" "ix421"
"xix421n" "AOI211"
"xix1279v" "ix1279"
"xix1279n" "AOI211"
"xix18236v" "ix18236"
"xix18236n" "AOI211"
"xix18076v" "ix18076"
"xix18076n" "AOI211"
"xix583v" "ix583"
"xix583n" "AOI211"
"xix18210v" "ix18210"
"xix18210n" "AOI211"
"xix1053v" "ix1053"
"xix1053n" "AOI211"
"xix1779v" "ix1779"
"xix1779n" "AOI211"
"xix1311v" "ix1311"
"xix1311n" "AOI211"
"xix531v" "ix531"
"xix531n" "AOI211"
"xix107v" "ix107"
"xix107n" "AOI211"
"xix137v" "ix137"
"xix137n" "AOI211"
"xix1835v" "ix1835"
"xix1835n" "AOI211"
"xix431v" "ix431"
"xix431n" "AOI211"
"xix569v" "ix569"
"xix569n" "NAND41"
"xix1473v" "ix1473"
"xix1473n" "NAND41"
"xix2179v" "ix2179"
"xix2179n" "NAND41"
"xix1861v" "ix1861"
"xix1861n" "NAND41"
"xix1987v" "ix1987"
"xix1987n" "NAND41"
"xix389v" "ix389"
"xix389n" "NAND41"
"xix69v" "ix69"
"xix69n" "NAND41"
"xix2315v" "ix2315"
"xix2315n" "NAND41"
"xix1945v" "ix1945"
"xix1945n" "NAND41"
"xix1423v" "ix1423"
"xix1423n" "NAND41"
"xix1597v" "ix1597"
"xix1597n" "NAND41"
"xix2319v" "ix2319"
"xix2319n" "NAND41"
"xix691v" "ix691"
"xix691n" "NAND41"
"xix1185v" "ix1185"
"xix1185n" "NAND41"
"xix1297v" "ix1297"
"xix1297n" "NAND41"
"xix1705v" "ix1705"
"xix1705n" "NAND41"
"xix985v" "ix985"
"xix985n" "NAND41"
"xix2247v" "ix2247"
"xix2247n" "NAND41"
"xix1479v" "ix1479"
"xix1479n" "NAND41"
"xix1451v" "ix1451"
"xix1451n" "NAND41"
"xix2243v" "ix2243"
"xix2243n" "NAND41"
"xix2475v" "ix2475"
"xix2475n" "NAND41"
"xix1757v" "ix1757"
"xix1757n" "NAND41"
"xix2441v" "ix2441"
"xix2441n" "NAND41"
"xix957v" "ix957"
"xix957n" "NAND41"
"xix1399v" "ix1399"
"xix1399n" "NAND41"
"xix393v" "ix393"
"xix393n" "NAND41"
"xix1027v" "ix1027"
"xix1027n" "NAND41"
"xix1351v" "ix1351"
"xix1351n" "NAND41"
"xix2277v" "ix2277"
"xix2277n" "NAND41"
"xix2505v" "ix2505"
"xix2505n" "NAND41"
"xix1651v" "ix1651"
"xix1651n" "NAND41"
"xix2101v" "ix2101"
"xix2101n" "NAND41"
"xix1101v" "ix1101"
"xix1101n" "NAND41"
"xix2137v" "ix2137"
"xix2137n" "NAND41"
"xix2409v" "ix2409"
"xix2409n" "NAND41"
"xix803v" "ix803"
"xix803n" "NAND41"
"xix1323v" "ix1323"
"xix1323n" "NAND41"
"xix2353v" "ix2353"
"xix2353n" "NAND41"
"xix1903v" "ix1903"
"xix1903n" "NAND41"
"xix1261v" "ix1261"
"xix1261n" "NAND41"
"xix18037v" "ix18037"
"xix18037n" "NOR31"
"xix18142v" "ix18142"
"xix18142n" "NOR31"
"xix18020v" "ix18020"
"xix18020n" "NOR31"
"xix18205v" "ix18205"
"xix18205n" "NOR31"
"xix18154v" "ix18154"
"xix18154n" "NOR31"
"xix151v" "ix151"
"xix151n" "NOR31"
"xix18010v" "ix18010"
"xix18010n" "NOR31"
"xix18218v" "ix18218"
"xix18218n" "NOR31"
"xix18171v" "ix18171"
"xix18171n" "NOR31"
"xix18659v" "ix18659"
"xix18659n" "NOR31"
"xix18125v" "ix18125"
"xix18125n" "NOR31"
"xix18106v" "ix18106"
"xix18106n" "NOR31"
"xix841v" "ix841"
"xix841n" "NOR31"
"xix869v" "ix869"
"xix869n" "OAI221"
"xix1807v" "ix1807"
"xix1807n" "OAI221"
"xix897v" "ix897"
"xix897n" "OAI221"
"xix279v" "ix279"
"xix279n" "OAI221"
"xix1529v" "ix1529"
"xix1529n" "OAI221"
"xix355v" "ix355"
"xix355n" "OAI221"
"xix2383v" "ix2383"
"xix2383n" "OAI221"
"xix321v" "ix321"
"xix321n" "OAI221"
"xix933v" "ix933"
"xix933n" "OAI221"
"xix1543v" "ix1543"
"xix1543n" "OAI221"
"xix711v" "ix711"
"xix711n" "OAI221"
"xix1507v" "ix1507"
"xix1507n" "OAI221"
"xix18627v" "ix18627"
"xix18627n" "NOR40"
"xix18542v" "ix18542"
"xix18542n" "NOR40"
"xix18596v" "ix18596"
"xix18596n" "NOR40"
"xix18073v" "ix18073"
"xix18073n" "NOR40"
"xix18614v" "ix18614"
"xix18614n" "NOR40"
"xix18546v" "ix18546"
"xix18546n" "NOR40"
"xix18514v" "ix18514"
"xix18514n" "NOR40"
"xix18261v" "ix18261"
"xix18261n" "NOR40"
"xix18463v" "ix18463"
"xix18463n" "NOR40"
"xix18474v" "ix18474"
"xix18474n" "NOR40"
"xix17481v" "ix17481"
"xix17481n" "NOR40"
"xix18111v" "ix18111"
"xix18111n" "NOR40"
"xix17587v" "ix17587"
"xix17587n" "NOR40"
"xix17724v" "ix17724"
"xix17724n" "NOR40"
"xix18325v" "ix18325"
"xix18325n" "NOR40"
"xix743v" "ix743"
"xix743n" "NOR40"
"xix18418v" "ix18418"
"xix18418n" "NOR40"
"xix18450v" "ix18450"
"xix18450n" "NOR40"
"xix18382v" "ix18382"
"xix18382n" "NOR40"
"xix18215v" "ix18215"
"xix18215n" "NOR40"
"xix18129v" "ix18129"
"xix18129n" "NOR40"
"xix17422v" "ix17422"
"xix17422n" "NOR40"
"xix18081v" "ix18081"
"xix18081n" "NOR40"
"xix17556v" "ix17556"
"xix17556n" "NOR40"
"xix18184v" "ix18184"
"xix18184n" "NOR40"
"xix18199v" "ix18199"
"xix18199n" "NOR40"
"xix17951v" "ix17951"
"xix17951n" "NOR40"
"xix18729v" "ix18729"
"xix18729n" "NOR40"
"xix17849v" "ix17849"
"xix17849n" "NOR40"
"xix18529v" "ix18529"
"xix18529n" "NOR40"
"xix18023v" "ix18023"
"xix18023n" "NOR40"
"xix18714v" "ix18714"
"xix18714n" "NOR40"
"xix18045v" "ix18045"
"xix18045n" "NOR40"
"xix18424v" "ix18424"
"xix18424n" "NOR40"
"xix18644v" "ix18644"
"xix18644n" "NOR40"
"xix18335v" "ix18335"
"xix18335n" "NOR40"
"xix18460v" "ix18460"
"xix18460n" "NOR40"
"xix18283v" "ix18283"
"xix18283n" "NOR40"
"xix18092v" "ix18092"
"xix18092n" "NOR40"
"xix18493v" "ix18493"
"xix18493n" "NOR40"
"xix18174v" "ix18174"
"xix18174n" "NOR40"
"xix18630v" "ix18630"
"xix18630n" "NOR40"
"xix18296v" "ix18296"
"xix18296n" "NOR40"
"xix18343v" "ix18343"
"xix18343n" "NOR40"
"xix18593v" "ix18593"
"xix18593n" "NOR40"
"xix18309v" "ix18309"
"xix18309n" "NOR40"
"xix17425v" "ix17425"
"xix17425n" "NOR40"
"xix18716v" "ix18716"
"xix18716n" "NOR40"
"xix18731v" "ix18731"
"xix18731n" "NOR40"
"xix18390v" "ix18390"
"xix18390n" "NOR40"
"xix17759v" "ix17759"
"xix17759n" "NOR40"
"xix18487v" "ix18487"
"xix18487n" "NOR40"
"xix18354v" "ix18354"
"xix18354n" "NOR40"
"xix18526v" "ix18526"
"xix18526n" "NOR40"
"xix18661v" "ix18661"
"xix18661n" "NOR40"
"xix18638v" "ix18638"
"xix18638n" "NOR40"
"xix18743v" "ix18743"
"xix18743n" "NOR40"
"xix17527v" "ix17527"
"xix17527n" "NOR40"
"xix18718v" "ix18718"
"xix18718n" "NOR40"
"xix18636v" "ix18636"
"xix18636n" "NOR40"
"xix17934v" "ix17934"
"xix17934n" "NOR40"
"xix18248v" "ix18248"
"xix18248n" "NOR40"
"xix18225v" "ix18225"
"xix18225n" "NOR40"
"xix18750v" "ix18750"
"xix18750n" "NOR40"
"xix18683v" "ix18683"
"xix18683n" "NOR40"
"xix18708v" "ix18708"
"xix18708n" "NOR40"
"xix18722v" "ix18722"
"xix18722n" "NOR40"
"xix18312v" "ix18312"
"xix18312n" "NOR40"
"xix18672v" "ix18672"
"xix18672n" "NOR40"
"xix18370v" "ix18370"
"xix18370n" "NOR40"
"xix18575v" "ix18575"
"xix18575n" "NOR40"
"xix18444v" "ix18444"
"xix18444n" "NOR40"
"xix17655v" "ix17655"
"xix17655n" "NOR40"
"xix18433v" "ix18433"
"xix18433n" "NOR40"
"xix17610v" "ix17610"
"xix17610n" "NOR40"
"xix18362v" "ix18362"
"xix18362n" "NOR40"
"xix17902v" "ix17902"
"xix17902n" "NOR40"
"xix18752v" "ix18752"
"xix18752n" "NOR40"
"xix18558v" "ix18558"
"xix18558n" "NOR40"
"xix18096v" "ix18096"
"xix18096n" "NOR40"
"xix18531v" "ix18531"
"xix18531n" "NOR40"
"xix18273v" "ix18273"
"xix18273n" "NOR40"
"xix18608v" "ix18608"
"xix18608n" "NOR40"
"xix18667v" "ix18667"
"xix18667n" "NOR40"
"xix18726v" "ix18726"
"xix18726n" "NOR40"
"xix18569v" "ix18569"
"xix18569n" "NOR40"
"xix18741v" "ix18741"
"xix18741n" "NOR40"
"xix18317v" "ix18317"
"xix18317n" "NOR40"
"xix17912v" "ix17912"
"xix17912n" "NOR40"
"xix18561v" "ix18561"
"xix18561n" "NOR40"
"xix17979v" "ix17979"
"xix17979n" "NOR40"
"xix18651v" "ix18651"
"xix18651n" "NOR40"
"xix17683v" "ix17683"
"xix17683n" "NOR40"
"xix18469v" "ix18469"
"xix18469n" "NOR40"
"xix17924v" "ix17924"
"xix17924n" "NOR40"
"xix18159v" "ix18159"
"xix18159n" "NOR40"
"xix17986v" "ix17986"
"xix17986n" "NOR40"
"xix18583v" "ix18583"
"xix18583n" "NOR40"
"xix18536v" "ix18536"
"xix18536n" "NOR40"
"xix471v" "ix471"
"xix471n" "NOR40"
"xix17899v" "ix17899"
"xix17899n" "NOR40"
"xix18438v" "ix18438"
"xix18438n" "NOR40"
"xix18738v" "ix18738"
"xix18738n" "NOR40"
"xix18754v" "ix18754"
"xix18754n" "NOR40"
"xix17999v" "ix17999"
"xix17999n" "NOR40"
"xix18456v" "ix18456"
"xix18456n" "NOR40"
"xix18695v" "ix18695"
"xix18695n" "NOR40"
"xix17638v" "ix17638"
"xix17638n" "NOR40"
"xix18301v" "ix18301"
"xix18301n" "NOR40"
"xix17696v" "ix17696"
"xix17696n" "NOR40"
"xix18711v" "ix18711"
"xix18711n" "NOR40"
"xix17967v" "ix17967"
"xix17967n" "NOR40"
"xix18509v" "ix18509"
"xix18509n" "NOR40"
"xix18447v" "ix18447"
"xix18447n" "NOR40"
"xix17791v" "ix17791"
"xix17791n" "NOR40"
"xix18735v" "ix18735"
"xix18735n" "NOR40"
"xix18633v" "ix18633"
"xix18633n" "NOR40"
"xix18114v" "ix18114"
"xix18114n" "NOR40"
"xix18415v" "ix18415"
"xix18415n" "NOR40"
"xix18601v" "ix18601"
"xix18601n" "NOR40"
"xix18676v" "ix18676"
"xix18676n" "NOR40"
"xix18551v" "ix18551"
"xix18551n" "NOR40"
"xix18264v" "ix18264"
"xix18264n" "NOR40"
"xreg_reg_5v" "reg_reg_5"
"xreg_reg_5n" "DFC1"
"xreg_reg_6v" "reg_reg_6"
"xreg_reg_6n" "DFC1"
"xreg_reg_0v" "reg_reg_0"
"xreg_reg_0n" "DFC1"
"xreg_reg_1v" "reg_reg_1"
"xreg_reg_1n" "DFC1"
"xreg_reg_3v" "reg_reg_3"
"xreg_reg_3n" "DFC1"
"xreg_reg_7v" "reg_reg_7"
"xreg_reg_7n" "DFC1"
"xreg_reg_4v" "reg_reg_4"
"xreg_reg_4n" "DFC1"
"xreg_reg_2v" "reg_reg_2"
"xreg_reg_2n" "DFC1"
"xix593v" "ix593"
"xix593n" "NOR21"
"xix163v" "ix163"
"xix163n" "NOR21"
"xix757v" "ix757"
"xix757n" "NOR21"
"xix433v" "ix433"
"xix433n" "NOR21"
"xix255v" "ix255"
"xix255n" "NOR21"
"xix755v" "ix755"
"xix755n" "NOR21"
"xix1019v" "ix1019"
"xix1019n" "NOR21"
"xix1407v" "ix1407"
"xix1407n" "NOR21"
"xix115v" "ix115"
"xix115n" "NOR21"
"xix1079v" "ix1079"
"xix1079n" "NOR21"
"xix17616v" "ix17616"
"xix17616n" "NOR21"
"xix25v" "ix25"
"xix25n" "NOR21"
"xix789v" "ix789"
"xix789n" "NOR21"
"xix787v" "ix787"
"xix787n" "NOR21"
"xix229v" "ix229"
"xix229n" "NOR21"
"xix131v" "ix131"
"xix131n" "NOR21"
"xix721v" "ix721"
"xix721n" "NOR21"
"xix249v" "ix249"
"xix249n" "NOR21"
"xix1375v" "ix1375"
"xix1375n" "NOR21"
"xix1373v" "ix1373"
"xix1373n" "NOR21"
"xix1711v" "ix1711"
"xix1711n" "NOR21"
"xix18655v" "ix18655"
"xix18655n" "NOR21"
"xix987v" "ix987"
"xix987n" "NOR21"
"xix1165v" "ix1165"
"xix1165n" "NOR21"
"xix437v" "ix437"
"xix437n" "NOR21"
"xix483v" "ix483"
"xix483n" "NOR21"
"xix667v" "ix667"
"xix667n" "NOR21"
"xix1173v" "ix1173"
"xix1173n" "NOR21"
"xix267v" "ix267"
"xix267n" "NOR21"
"xix245v" "ix245"
"xix245n" "NOR21"
"xix1157v" "ix1157"
"xix1157n" "NOR21"
"xix18207v" "ix18207"
"xix18207n" "NOR21"
"xix645v" "ix645"
"xix645n" "NOR21"
"xix959v" "ix959"
"xix959n" "NOR21"
"xix175v" "ix175"
"xix175n" "NOR21"
"xix733v" "ix733"
"xix733n" "NOR21"
"xix1113v" "ix1113"
"xix1113n" "NOR21"
"xix1433v" "ix1433"
"xix1433n" "NOR21"
"xix1427v" "ix1427"
"xix1427n" "NOR21"
"xix201v" "ix201"
"xix201n" "NOR21"
"xix913v" "ix913"
"xix913n" "NOR21"
"xix1005v" "ix1005"
"xix1005n" "NOR21"
"xix769v" "ix769"
"xix769n" "NOR21"
"xix1153v" "ix1153"
"xix1153n" "NOR21"
"xix81v" "ix81"
"xix81n" "NOR21"
"xix87v" "ix87"
"xix87n" "NOR21"
"xix635v" "ix635"
"xix635n" "NOR21"
"xix753v" "ix753"
"xix753n" "NOR21"
"xix679v" "ix679"
"xix679n" "NOR21"
"xix579v" "ix579"
"xix579n" "NOR21"
"xix1463v" "ix1463"
"xix1463n" "NOR21"
"xix1049v" "ix1049"
"xix1049n" "NOR21"
"xix1129v" "ix1129"
"xix1129n" "NOR21"
"xix617v" "ix617"
"xix617n" "NOR21"
"xix299v" "ix299"
"xix299n" "NOR21"
"xix427v" "ix427"
"xix427n" "NOR21"
"xix109v" "ix109"
"xix109n" "NOR21"
"xix731v" "ix731"
"xix731n" "NOR21"
"xix381v" "ix381"
"xix381n" "NOR21"
"xix265v" "ix265"
"xix265n" "NOR21"
"xix95v" "ix95"
"xix95n" "NOR21"
"xix619v" "ix619"
"xix619n" "NOR21"
"xix303v" "ix303"
"xix303n" "NOR21"
"xix671v" "ix671"
"xix671n" "NOR21"
"xix1105v" "ix1105"
"xix1105n" "NOR21"
"xix1125v" "ix1125"
"xix1125n" "NOR21"
"xix61v" "ix61"
"xix61n" "NOR21"
"xix179v" "ix179"
"xix179n" "NOR21"
"xix1075v" "ix1075"
"xix1075n" "NOR21"
"xix223v" "ix223"
"xix223n" "NOR21"
"xix271v" "ix271"
"xix271n" "NOR21"
"xix577v" "ix577"
"xix577n" "NOR21"
"xix1067v" "ix1067"
"xix1067n" "NOR21"
"xix683v" "ix683"
"xix683n" "NOR21"
"xix557v" "ix557"
"xix557n" "NOR21"
"xix127v" "ix127"
"xix127n" "NOR21"
"xix649v" "ix649"
"xix649n" "NOR21"
"xix999v" "ix999"
"xix999n" "NOR21"
"xix63v" "ix63"
"xix63n" "NOR21"
"xix1347v" "ix1347"
"xix1347n" "NOR21"
"xix331v" "ix331"
"xix331n" "NOR21"
"xix511v" "ix511"
"xix511n" "NOR21"
"xix215v" "ix215"
"xix215n" "NOR21"
"xix655v" "ix655"
"xix655n" "NOR21"
"xix479v" "ix479"
"xix479n" "NOR21"
"xix475v" "ix475"
"xix475n" "NOR21"
"xix365v" "ix365"
"xix365n" "NOR21"
"xix1039v" "ix1039"
"xix1039n" "NOR21"
"xix97v" "ix97"
"xix97n" "NOR21"
"xix101v" "ix101"
"xix101n" "NOR21"
"xix185v" "ix185"
"xix185n" "NOR21"
"xix191v" "ix191"
"xix191n" "NOR21"
"xix1723v" "ix1723"
"xix1723n" "NOR21"
"xix1013v" "ix1013"
"xix1013n" "NOR21"
"xix601v" "ix601"
"xix601n" "NOR21"
"xix1163v" "ix1163"
"xix1163n" "NOR21"
"xix167v" "ix167"
"xix167n" "NOR21"
"xix717v" "ix717"
"xix717n" "NOR21"
"xix509v" "ix509"
"xix509n" "NOR21"
"xix59v" "ix59"
"xix59n" "NOR21"
"xix657v" "ix657"
"xix657n" "NOR21"
"xix17803v" "ix17803"
"xix17803n" "NOR21"
"xix2149v" "ix2149"
"xix2149n" "NOR21"
"xix351v" "ix351"
"xix351n" "NOR21"
"xix523v" "ix523"
"xix523n" "NOR21"
"xix501v" "ix501"
"xix501n" "NOR21"
"xix333v" "ix333"
"xix333n" "NOR21"
"xix533v" "ix533"
"xix533n" "NOR21"
"xix673v" "ix673"
"xix673n" "NOR21"
"xix775v" "ix775"
"xix775n" "NOR21"
"xix18194v" "ix18194"
"xix18194n" "NOR21"
"xix489v" "ix489"
"xix489n" "NOR21"
"xix1093v" "ix1093"
"xix1093n" "NOR21"
"xix45v" "ix45"
"xix45n" "NOR21"
"xix1389v" "ix1389"
"xix1389n" "NOR21"
"xix561v" "ix561"
"xix561n" "NOR21"
"xix18086v" "ix18086"
"xix18086n" "NOR21"
"xix883v" "ix883"
"xix883n" "NOR21"
"xix17686v" "ix17686"
"xix17686n" "NOR21"
"xix623v" "ix623"
"xix623n" "NOR21"
"xix51v" "ix51"
"xix51n" "NOR21"
"xix575v" "ix575"
"xix575n" "NOR21"
"xix1147v" "ix1147"
"xix1147n" "NOR21"
"xix527v" "ix527"
"xix527n" "NOR21"
"xix1441v" "ix1441"
"xix1441n" "NOR21"
"xix33v" "ix33"
"xix33n" "NOR21"
"xix697v" "ix697"
"xix697n" "NOR21"
"xix285v" "ix285"
"xix285n" "CLKIN1"
"xix171v" "ix171"
"xix171n" "CLKIN1"
"xix341v" "ix341"
"xix341n" "CLKIN1"
"xix367v" "ix367"
"xix367n" "CLKIN1"
"xix605v" "ix605"
"xix605n" "CLKIN1"
"xix1189v" "ix1189"
"xix1189n" "CLKIN1"
"xix1869v" "ix1869"
"xix1869n" "CLKIN1"
"xix93v" "ix93"
"xix93n" "CLKIN1"
"xix18564v" "ix18564"
"xix18564n" "CLKIN1"
"xix409v" "ix409"
"xix409n" "CLKIN1"
"xix281v" "ix281"
"xix281n" "CLKIN1"
"xix17797v" "ix17797"
"xix17797n" "CLKIN1"
"xix2357v" "ix2357"
"xix2357n" "CLKIN1"
"xix23v" "ix23"
"xix23n" "CLKIN1"
"xix1967v" "ix1967"
"xix1967n" "CLKIN1"
"xix435v" "ix435"
"xix435n" "CLKIN1"
"xix15v" "ix15"
"xix15n" "CLKIN1"
"xix17762v" "ix17762"
"xix17762n" "CLKIN1"
"xix18152v" "ix18152"
"xix18152n" "CLKIN1"
"xix765v" "ix765"
"xix765n" "CLKIN1"
"xix493v" "ix493"
"xix493n" "CLKIN1"
"xix18466v" "ix18466"
"xix18466n" "CLKIN1"
"xix18267v" "ix18267"
"xix18267n" "CLKIN1"
"xix147v" "ix147"
"xix147n" "CLKIN1"
"xix553v" "ix553"
"xix553n" "CLKIN1"
"xix121v" "ix121"
"xix121n" "CLKIN1"
"xix17702v" "ix17702"
"xix17702n" "CLKIN1"
"xix3v" "ix3"
"xix3n" "CLKIN1"
"xix17716v" "ix17716"
"xix17716n" "CLKIN1"
"xix1721v" "ix1721"
"xix1721n" "CLKIN1"
"xix18104v" "ix18104"
"xix18104n" "CLKIN1"
"xix515v" "ix515"
"xix515n" "CLKIN1"
"xix17824v" "ix17824"
"xix17824n" "CLKIN1"
"xix2509v" "ix2509"
"xix2509n" "CLKIN1"
"xix57v" "ix57"
"xix57n" "CLKIN1"
"xix17503v" "ix17503"
"xix17503n" "CLKIN1"
"xix2183v" "ix2183"
"xix2183n" "CLKIN1"
"xix18168v" "ix18168"
"xix18168n" "CLKIN1"
"xix7v" "ix7"
"xix7n" "CLKIN1"
"xix317v" "ix317"
"xix317n" "CLKIN1"
"xix403v" "ix403"
"xix403n" "CLKIN1"
"xix291v" "ix291"
"xix291n" "CLKIN1"
"xix17943v" "ix17943"
"xix17943n" "CLKIN1"
"xix18385v" "ix18385"
"xix18385n" "CLKIN1"
"xix18140v" "ix18140"
"xix18140n" "CLKIN1"
"xix889v" "ix889"
"xix889n" "CLKIN1"
"xix18315v" "ix18315"
"xix18315n" "CLKIN1"
"xix1055v" "ix1055"
"xix1055n" "CLKIN1"
"xix17711v" "ix17711"
"xix17711n" "CLKIN1"
"xix17996v" "ix17996"
"xix17996n" "CLKIN1"
"xix465v" "ix465"
"xix465n" "CLKIN1"
"xix643v" "ix643"
"xix643n" "CLKIN1"
"xix745v" "ix745"
"xix745n" "CLKIN1"
"xix18428v" "ix18428"
"xix18428n" "CLKIN1"
"xix559v" "ix559"
"xix559n" "CLKIN1"
"xix1041v" "ix1041"
"xix1041n" "CLKIN1"
"xix9v" "ix9"
"xix9n" "CLKIN1"
"xix399v" "ix399"
"xix399n" "CLKIN1"
"xix18611v" "ix18611"
"xix18611n" "CLKIN1"
"xix18664v" "ix18664"
"xix18664n" "CLKIN1"
"xix153v" "ix153"
"xix153n" "CLKIN1"
"xix133v" "ix133"
"xix133n" "CLKIN1"
"xix17920v" "ix17920"
"xix17920n" "CLKIN1"
"xix1117v" "ix1117"
"xix1117n" "CLKIN1"
"xix17565v" "ix17565"
"xix17565n" "CLKIN1"
"xix759v" "ix759"
"xix759n" "CLKIN1"
"xix1369v" "ix1369"
"xix1369n" "CLKIN1"
"xix17428v" "ix17428"
"xix17428n" "CLKIN1"
"xix1381v" "ix1381"
"xix1381n" "CLKIN1"
"xix17544v" "ix17544"
"xix17544n" "CLKIN1"
"xix963v" "ix963"
"xix963n" "CLKIN1"
"xix1413v" "ix1413"
"xix1413n" "CLKIN1"
"xix17869v" "ix17869"
"xix17869n" "CLKIN1"
"xix1991v" "ix1991"
"xix1991n" "CLKIN1"
"xix17858v" "ix17858"
"xix17858n" "CLKIN1"
"xix505v" "ix505"
"xix505n" "CLKIN1"
"xix18472v" "ix18472"
"xix18472n" "CLKIN1"
"xix18504v" "ix18504"
"xix18504n" "CLKIN1"
"xix1177v" "ix1177"
"xix1177n" "CLKIN1"
"xix17693v" "ix17693"
"xix17693n" "CLKIN1"
"xix18307v" "ix18307"
"xix18307n" "CLKIN1"
"xix1111v" "ix1111"
"xix1111n" "CLKIN1"
"xix17866v" "ix17866"
"xix17866n" "CLKIN1"
"xix17636v" "ix17636"
"xix17636n" "CLKIN1"
"xix17854v" "ix17854"
"xix17854n" "CLKIN1"
"xix199v" "ix199"
"xix199n" "CLKIN1"
"xix1307v" "ix1307"
"xix1307n" "CLKIN1"
"xix17619v" "ix17619"
"xix17619n" "CLKIN1"
"xix17888v" "ix17888"
"xix17888n" "CLKIN1"
"xix385v" "ix385"
"xix385n" "CLKIN1"
"xix851v" "ix851"
"xix851n" "CLKIN1"
"xix395v" "ix395"
"xix395n" "CLKIN1"
"xix17590v" "ix17590"
"xix17590n" "CLKIN1"
"xix18288v" "ix18288"
"xix18288n" "CLKIN1"
"xix17554v" "ix17554"
"xix17554n" "CLKIN1"
"xix18357v" "ix18357"
"xix18357n" "CLKIN1"
"xix18135v" "ix18135"
"xix18135n" "CLKIN1"
"xix17785v" "ix17785"
"xix17785n" "CLKIN1"
"xix18008v" "ix18008"
"xix18008n" "CLKIN1"
"xix17928v" "ix17928"
"xix17928n" "CLKIN1"
"xix17991v" "ix17991"
"xix17991n" "CLKIN1"
"xix18006v" "ix18006"
"xix18006n" "CLKIN1"
"xix18647v" "ix18647"
"xix18647n" "CLKIN1"
"xix18197v" "ix18197"
"xix18197n" "CLKIN1"
"xix18352v" "ix18352"
"xix18352n" "CLKIN1"
"xix18090v" "ix18090"
"xix18090n" "CLKIN1"
"xix17983v" "ix17983"
"xix17983n" "CLKIN1"
"xix621v" "ix621"
"xix621n" "CLKIN1"
"xix1313v" "ix1313"
"xix1313n" "CLKIN1"
"xix499v" "ix499"
"xix499n" "CLKIN1"
"xix793v" "ix793"
"xix793n" "CLKIN1"
"xix18348v" "ix18348"
"xix18348n" "CLKIN1"
"xix337v" "ix337"
"xix337n" "CLKIN1"
"xix18031v" "ix18031"
"xix18031n" "CLKIN1"
"xix231v" "ix231"
"xix231n" "CLKIN1"
"xix681v" "ix681"
"xix681n" "CLKIN1"
"xix253v" "ix253"
"xix253n" "CLKIN1"
"xix447v" "ix447"
"xix447n" "CLKIN1"
"xix17894v" "ix17894"
"xix17894n" "CLKIN1"
"xix18393v" "ix18393"
"xix18393n" "CLKIN1"
"xix18690v" "ix18690"
"xix18690n" "CLKIN1"
"xix1287v" "ix1287"
"xix1287n" "CLKIN1"
"xix18026v" "ix18026"
"xix18026n" "CLKIN1"
"xix629v" "ix629"
"xix629n" "CLKIN1"
"xix929v" "ix929"
"xix929n" "CLKIN1"
"xix18068v" "ix18068"
"xix18068n" "CLKIN1"
"xix18189v" "ix18189"
"xix18189n" "CLKIN1"
"xix795v" "ix795"
"xix795n" "CLKIN1"
"xix2131v" "ix2131"
"xix2131n" "CLKIN1"
"xix2155v" "ix2155"
"xix2155n" "CLKIN1"
"xix17v" "ix17"
"xix17n" "CLKIN1"
"xix65v" "ix65"
"xix65n" "CLKIN1"
"xix941v" "ix941"
"xix941n" "CLKIN1"
"xix977v" "ix977"
"xix977n" "CLKIN1"
"xix551v" "ix551"
"xix551n" "CLKIN1"
"xix1457v" "ix1457"
"xix1457n" "CLKIN1"
"xix18421v" "ix18421"
"xix18421n" "CLKIN1"
"xix17641v" "ix17641"
"xix17641n" "CLKIN1"
"xix17661v" "ix17661"
"xix17661n" "CLKIN1"
"xix379v" "ix379"
"xix379n" "CLKIN1"
"xix1v" "ix1"
"xix1n" "CLKIN1"
"xix13v" "ix13"
"xix13n" "CLKIN1"
"xix18234v" "ix18234"
"xix18234n" "CLKIN1"
"xix18320v" "ix18320"
"xix18320n" "CLKIN1"
"xix39v" "ix39"
"xix39n" "CLKIN1"
"xix17965v" "ix17965"
"xix17965n" "CLKIN1"
"xix17977v" "ix17977"
"xix17977n" "CLKIN1"
"xix1077v" "ix1077"
"xix1077n" "CLKIN1"
"xix1533v" "ix1533"
"xix1533n" "CLKIN1"
"xix1103v" "ix1103"
"xix1103n" "CLKIN1"
"xix18622v" "ix18622"
"xix18622n" "CLKIN1"
"xix807v" "ix807"
"xix807n" "CLKIN1"
"xix1761v" "ix1761"
"xix1761n" "CLKIN1"
"xix615v" "ix615"
"xix615n" "CLKIN1"
"xix18692v" "ix18692"
"xix18692n" "CLKIN1"
"xix949v" "ix949"
"xix949n" "CLKIN1"
"xix327v" "ix327"
"xix327n" "CLKIN1"
"xix453v" "ix453"
"xix453n" "CLKIN1"
"xix18163v" "ix18163"
"xix18163n" "CLKIN1"
"xix79v" "ix79"
"xix79n" "CLKIN1"
"xix257v" "ix257"
"xix257n" "CLKIN1"
"xix18380v" "ix18380"
"xix18380n" "CLKIN1"
"xix1145v" "ix1145"
"xix1145n" "CLKIN1"
"xix1841v" "ix1841"
"xix1841n" "CLKIN1"
"xix487v" "ix487"
"xix487n" "CLKIN1"
"xix18099v" "ix18099"
"xix18099n" "CLKIN1"
"xix17771v" "ix17771"
"xix17771n" "CLKIN1"
"xix1127v" "ix1127"
"xix1127n" "CLKIN1"
"xix17844v" "ix17844"
"xix17844n" "CLKIN1"
"xix18121v" "ix18121"
"xix18121n" "CLKIN1"
"xix1439v" "ix1439"
"xix1439n" "CLKIN1"
"xix2073v" "ix2073"
"xix2073n" "CLKIN1"
"xix18229v" "ix18229"
"xix18229n" "CLKIN1"
"xix17882v" "ix17882"
"xix17882n" "CLKIN1"
"xix701v" "ix701"
"xix701n" "CLKIN1"
"xix659v" "ix659"
"xix659n" "CLKIN1"
"xix363v" "ix363"
"xix363n" "CLKIN1"
"xix17931v" "ix17931"
"xix17931n" "CLKIN1"
"xix18145v" "ix18145"
"xix18145n" "CLKIN1"
"xix1253v" "ix1253"
"xix1253n" "CLKIN1"
"xix473v" "ix473"
"xix473n" "CLKIN1"
"xix417v" "ix417"
"xix417n" "CLKIN1"
"xix729v" "ix729"
"xix729n" "CLKIN1"
"xix1587v" "ix1587"
"xix1587n" "CLKIN1"
"xix263v" "ix263"
"xix263n" "CLKIN1"
"xix18453v" "ix18453"
"xix18453n" "CLKIN1"
"xix1303v" "ix1303"
"xix1303n" "CLKIN1"
"xix29v" "ix29"
"xix29n" "CLKIN1"
"xix27v" "ix27"
"xix27n" "CLKIN1"
"xix18680v" "ix18680"
"xix18680n" "CLKIN1"
"xix43v" "ix43"
"xix43n" "CLKIN1"
"xix18149v" "ix18149"
"xix18149n" "NAND21"
"xix18055v" "ix18055"
"xix18055n" "NAND21"
"xix18338v" "ix18338"
"xix18338n" "NAND21"
"xix17551v" "ix17551"
"xix17551n" "NAND21"
"xix17676v" "ix17676"
"xix17676n" "NAND21"
"xix18015v" "ix18015"
"xix18015n" "NAND21"
"xix17788v" "ix17788"
"xix17788n" "NAND21"
"xix951v" "ix951"
"xix951n" "NAND21"
"xix2289v" "ix2289"
"xix2289n" "NAND21"
"xix18002v" "ix18002"
"xix18002n" "NAND21"
"xix17468v" "ix17468"
"xix17468n" "NAND21"
"xix17875v" "ix17875"
"xix17875n" "NAND21"
"xix18179v" "ix18179"
"xix18179n" "NAND21"
"xix17648v" "ix17648"
"xix17648n" "NAND21"
"xix1131v" "ix1131"
"xix1131n" "NAND21"
"xix17519v" "ix17519"
"xix17519n" "NAND21"
"xix17852v" "ix17852"
"xix17852n" "NAND21"
"xix18033v" "ix18033"
"xix18033n" "NAND21"
"xix925v" "ix925"
"xix925n" "NAND21"
"xix17782v" "ix17782"
"xix17782n" "NAND21"
"xix685v" "ix685"
"xix685n" "NAND21"
"xix1403v" "ix1403"
"xix1403n" "NAND21"
"xix517v" "ix517"
"xix517n" "NAND21"
"xix17497v" "ix17497"
"xix17497n" "NAND21"
"xix17885v" "ix17885"
"xix17885n" "NAND21"
"xix1015v" "ix1015"
"xix1015n" "NAND21"
"xix18063v" "ix18063"
"xix18063n" "NAND21"
"xix17746v" "ix17746"
"xix17746n" "NAND21"
"xix18066v" "ix18066"
"xix18066n" "NAND21"
"xix17842v" "ix17842"
"xix17842n" "NAND21"
"xix18013v" "ix18013"
"xix18013n" "NAND21"
"xix18117v" "ix18117"
"xix18117n" "NAND21"
"xix611v" "ix611"
"xix611n" "NAND21"
"xix17860v" "ix17860"
"xix17860n" "NAND21"
"xix18242v" "ix18242"
"xix18242n" "NAND21"
"xix17864v" "ix17864"
"xix17864n" "NAND21"
"xix1179v" "ix1179"
"xix1179n" "NAND21"
"xix17819v" "ix17819"
"xix17819n" "NAND21"
"xix2341v" "ix2341"
"xix2341n" "NAND21"
"xix1893v" "ix1893"
"xix1893n" "NAND21"
"xix637v" "ix637"
"xix637n" "NAND21"
"xix17516v" "ix17516"
"xix17516n" "NAND21"
"xix17838v" "ix17838"
"xix17838n" "NAND21"
"xix17905v" "ix17905"
"xix17905n" "NAND21"
"xix18360v" "ix18360"
"xix18360n" "NAND21"
"xix17973v" "ix17973"
"xix17973n" "NAND21"
"xix2249v" "ix2249"
"xix2249n" "NAND21"
"xix18278v" "ix18278"
"xix18278n" "NAND21"
"xix2105v" "ix2105"
"xix2105n" "NAND21"
"xix17705v" "ix17705"
"xix17705n" "NAND21"
"xix18590v" "ix18590"
"xix18590n" "NAND21"
"xix783v" "ix783"
"xix783n" "NAND21"
"xix18304v" "ix18304"
"xix18304n" "NAND21"
"xix17764v" "ix17764"
"xix17764n" "NAND21"
"xix17768v" "ix17768"
"xix17768n" "NAND21"
"xix17908v" "ix17908"
"xix17908n" "NAND21"
"xix17613v" "ix17613"
"xix17613n" "NAND21"
"xix1871v" "ix1871"
"xix1871n" "NAND21"
"xix17708v" "ix17708"
"xix17708n" "NAND21"
"xix18165v" "ix18165"
"xix18165n" "NAND21"
"xix1875v" "ix1875"
"xix1875n" "NAND21"
"xix18376v" "ix18376"
"xix18376n" "NAND21"
"xix1149v" "ix1149"
"xix1149n" "NAND21"
"xix1061v" "ix1061"
"xix1061n" "NAND21"
"xix17633v" "ix17633"
"xix17633n" "NAND21"
"xix1969v" "ix1969"
"xix1969n" "NAND21"
"xix369v" "ix369"
"xix369n" "NAND21"
"xix17674v" "ix17674"
"xix17674n" "NAND21"
"xix18549v" "ix18549"
"xix18549n" "NAND21"
"xix17597v" "ix17597"
"xix17597n" "NAND21"
"xix423v" "ix423"
"xix423n" "NAND21"
"xix17491v" "ix17491"
"xix17491n" "NAND21"
"xix1751v" "ix1751"
"xix1751n" "NAND21"
"xix17994v" "ix17994"
"xix17994n" "NAND21"
"xix1843v" "ix1843"
"xix1843n" "NAND21"
"xix17537v" "ix17537"
"xix17537n" "NAND21"
"xix1273v" "ix1273"
"xix1273n" "NAND21"
"xix18572v" "ix18572"
"xix18572n" "NAND21"
"xix18346v" "ix18346"
"xix18346n" "NAND21"
"xix17627v" "ix17627"
"xix17627n" "NAND21"
"xix17829v" "ix17829"
"xix17829n" "NAND21"
"xix17679v" "ix17679"
"xix17679n" "NAND21"
"xix18058v" "ix18058"
"xix18058n" "NAND21"
"xix17722v" "ix17722"
"xix17722n" "NAND21"
"xix17533v" "ix17533"
"xix17533n" "NAND21"