HEADER
"PSFversion" "1.00"
"ix17445v" "xix17445"
"ix17445n" "XNR22"
"ix17447v" "xix17447"
"ix17447n" "XNR22"
"ix17521v" "xix17521"
"ix17521n" "INV3"
"ix17559v" "xix17559"
"ix17559n" "INV3"
"ix219v" "xix219"
"ix219n" "INV3"
"ix75v" "xix75"
"ix75n" "NOR22"
"ix5v" "xix5"
"ix5n" "NOR22"
"ix17603v" "xix17603"
"ix17603n" "NAND22"
"ix17443v" "xix17443"
"ix17443n" "NAND22"
"ix18788v" "xix18788"
"ix18788n" "BUF2"
"ix2221v" "xix2221"
"ix2221n" "MUX22"
"ix17877v" "xix17877"
"ix17877n" "AOI2111"
"ix18404v" "xix18404"
"ix18404n" "AOI2111"
"ix18500v" "xix18500"
"ix18500n" "AOI2111"
"ix17832v" "xix17832"
"ix17832n" "AOI2111"
"ix18761v" "xix18761"
"ix18761n" "AOI2111"
"ix18701v" "xix18701"
"ix18701n" "AOI2111"
"ix857v" "xix857"
"ix857n" "AOI311"
"ix1073v" "xix1073"
"ix1073n" "AOI311"
"ix1771v" "xix1771"
"ix1771n" "AOI311"
"ix831v" "xix831"
"ix831n" "AOI311"
"ix821v" "xix821"
"ix821n" "AOI311"
"ix209v" "xix209"
"ix209n" "IMUX21"
"ix18245v" "xix18245"
"ix18245n" "IMUX21"
"ix18240v" "xix18240"
"ix18240n" "IMUX21"
"ix18566v" "xix18566"
"ix18566n" "AOI221"
"ix18517v" "xix18517"
"ix18517n" "AOI221"
"ix17872v" "xix17872"
"ix17872n" "AOI221"
"ix17846v" "xix17846"
"ix17846n" "AOI221"
"ix18616v" "xix18616"
"ix18616n" "AOI221"
"ix18618v" "xix18618"
"ix18618n" "AOI221"
"ix17484v" "xix17484"
"ix17484n" "AOI221"
"ix377v" "xix377"
"ix377n" "OAI311"
"ix18388v" "xix18388"
"ix18388n" "OAI311"
"ix1549v" "xix1549"
"ix1549n" "OAI311"
"ix1213v" "xix1213"
"ix1213n" "OAI2111"
"ix2013v" "xix2013"
"ix2013n" "OAI2111"
"ix1499v" "xix1499"
"ix1499n" "OAI2111"
"ix2069v" "xix2069"
"ix2069n" "OAI2111"
"ix311v" "xix311"
"ix311n" "OAI2111"
"ix2029v" "xix2029"
"ix2029n" "OAI2111"
"ix921v" "xix921"
"ix921n" "OAI2111"
"ix1523v" "xix1523"
"ix1523n" "OAI2111"
"ix1537v" "xix1537"
"ix1537n" "OAI211"
"ix1831v" "xix1831"
"ix1831n" "OAI211"
"ix18765v" "xix18765"
"ix18765n" "OAI211"
"ix1225v" "xix1225"
"ix1225n" "OAI211"
"ix18687v" "xix18687"
"ix18687n" "OAI211"
"ix1341v" "xix1341"
"ix1341n" "OAI211"
"ix1089v" "xix1089"
"ix1089n" "OAI211"
"ix967v" "xix967"
"ix967n" "OAI211"
"ix1271v" "xix1271"
"ix1271n" "OAI211"
"ix17731v" "xix17731"
"ix17731n" "OAI211"
"ix1797v" "xix1797"
"ix1797n" "OAI211"
"ix18373v" "xix18373"
"ix18373n" "OAI211"
"ix345v" "xix345"
"ix345n" "OAI211"
"ix1575v" "xix1575"
"ix1575n" "OAI211"
"ix18587v" "xix18587"
"ix18587n" "OAI211"
"ix18256v" "xix18256"
"ix18256n" "OAI211"
"ix1935v" "xix1935"
"ix1935n" "OAI211"
"ix451v" "xix451"
"ix451n" "OAI211"
"ix1813v" "xix1813"
"ix1813n" "OAI211"
"ix18699v" "xix18699"
"ix18699n" "OAI211"
"ix1561v" "xix1561"
"ix1561n" "OAI211"
"ix18051v" "xix18051"
"ix18051n" "OAI211"
"ix441v" "xix441"
"ix441n" "OAI211"
"ix17794v" "xix17794"
"ix17794n" "OAI211"
"ix1247v" "xix1247"
"ix1247n" "OAI211"
"ix2373v" "xix2373"
"ix2373n" "OAI211"
"ix459v" "xix459"
"ix459n" "OAI211"
"ix18251v" "xix18251"
"ix18251n" "OAI211"
"ix18431v" "xix18431"
"ix18431n" "OAI211"
"ix663v" "xix663"
"ix663n" "OAI211"
"ix971v" "xix971"
"ix971n" "OAI211"
"ix261v" "xix261"
"ix261n" "OAI211"
"ix18477v" "xix18477"
"ix18477n" "OAI211"
"ix18213v" "xix18213"
"ix18213n" "OAI211"
"ix18556v" "xix18556"
"ix18556n" "OAI211"
"ix2033v" "xix2033"
"ix2033n" "OAI211"
"ix407v" "xix407"
"ix407n" "OAI211"
"ix18490v" "xix18490"
"ix18490n" "OAI211"
"ix227v" "xix227"
"ix227n" "OAI211"
"ix18078v" "xix18078"
"ix18078n" "OAI211"
"ix2077v" "xix2077"
"ix2077n" "OAI211"
"ix1625v" "xix1625"
"ix1625n" "OAI211"
"ix1727v" "xix1727"
"ix1727n" "NAND31"
"ix1611v" "xix1611"
"ix1611n" "NAND31"
"ix1695v" "xix1695"
"ix1695n" "NAND31"
"ix1657v" "xix1657"
"ix1657n" "NAND31"
"ix2305v" "xix2305"
"ix2305n" "NAND31"
"ix1671v" "xix1671"
"ix1671n" "NAND31"
"ix1591v" "xix1591"
"ix1591n" "NAND31"
"ix2281v" "xix2281"
"ix2281n" "NAND31"
"ix1355v" "xix1355"
"ix1355n" "NAND31"
"ix2267v" "xix2267"
"ix2267n" "NAND31"
"ix1685v" "xix1685"
"ix1685n" "NAND31"
"ix991v" "xix991"
"ix991n" "NAND31"
"ix2141v" "xix2141"
"ix2141n" "NAND31"
"ix1121v" "xix1121"
"ix1121n" "NAND31"
"ix1709v" "xix1709"
"ix1709n" "NAND31"
"ix1909v" "xix1909"
"ix1909n" "NAND31"
"ix1739v" "xix1739"
"ix1739n" "NAND31"
"ix1385v" "xix1385"
"ix1385n" "NAND31"
"ix909v" "xix909"
"ix909n" "NAND31"
"ix1601v" "xix1601"
"ix1601n" "NAND31"
"ix1645v" "xix1645"
"ix1645n" "NAND31"
"ix1565v" "xix1565"
"ix1565n" "NAND31"
"ix1633v" "xix1633"
"ix1633n" "NAND31"
"ix18410v" "xix18410"
"ix18410n" "NAND31"
"ix2233v" "xix2233"
"ix2233n" "NAND31"
"ix1035v" "xix1035"
"ix1035n" "NAND31"
"ix2055v" "xix2055"
"ix2055n" "NAND31"
"ix295v" "xix295"
"ix295n" "NAND31"
"ix1327v" "xix1327"
"ix1327n" "NAND31"
"ix18041v" "xix18041"
"ix18041n" "AOI211"
"ix537v" "xix537"
"ix537n" "AOI211"
"ix945v" "xix945"
"ix945n" "AOI211"
"ix1137v" "xix1137"
"ix1137n" "AOI211"
"ix17776v" "xix17776"
"ix17776n" "AOI211"
"ix17811v" "xix17811"
"ix17811n" "AOI211"
"ix18048v" "xix18048"
"ix18048n" "AOI211"
"ix1257v" "xix1257"
"ix1257n" "AOI211"
"ix18397v" "xix18397"
"ix18397n" "AOI211"
"ix2197v" "xix2197"
"ix2197n" "AOI211"
"ix2193v" "xix2193"
"ix2193n" "AOI211"
"ix18291v" "xix18291"
"ix18291n" "AOI211"
"ix1579v" "xix1579"
"ix1579n" "AOI211"
"ix235v" "xix235"
"ix235n" "AOI211"
"ix825v" "xix825"
"ix825n" "AOI211"
"ix875v" "xix875"
"ix875n" "AOI211"
"ix17727v" "xix17727"
"ix17727n" "AOI211"
"ix1267v" "xix1267"
"ix1267n" "AOI211"
"ix1775v" "xix1775"
"ix1775n" "AOI211"
"ix18479v" "xix18479"
"ix18479n" "AOI211"
"ix1331v" "xix1331"
"ix1331n" "AOI211"
"ix421v" "xix421"
"ix421n" "AOI211"
"ix1279v" "xix1279"
"ix1279n" "AOI211"
"ix18236v" "xix18236"
"ix18236n" "AOI211"
"ix18076v" "xix18076"
"ix18076n" "AOI211"
"ix583v" "xix583"
"ix583n" "AOI211"
"ix18210v" "xix18210"
"ix18210n" "AOI211"
"ix1053v" "xix1053"
"ix1053n" "AOI211"
"ix1779v" "xix1779"
"ix1779n" "AOI211"
"ix1311v" "xix1311"
"ix1311n" "AOI211"
"ix531v" "xix531"
"ix531n" "AOI211"
"ix107v" "xix107"
"ix107n" "AOI211"
"ix137v" "xix137"
"ix137n" "AOI211"
"ix1835v" "xix1835"
"ix1835n" "AOI211"
"ix431v" "xix431"
"ix431n" "AOI211"
"ix569v" "xix569"
"ix569n" "NAND41"
"ix1473v" "xix1473"
"ix1473n" "NAND41"
"ix2179v" "xix2179"
"ix2179n" "NAND41"
"ix1861v" "xix1861"
"ix1861n" "NAND41"
"ix1987v" "xix1987"
"ix1987n" "NAND41"
"ix389v" "xix389"
"ix389n" "NAND41"
"ix69v" "xix69"
"ix69n" "NAND41"
"ix2315v" "xix2315"
"ix2315n" "NAND41"
"ix1945v" "xix1945"
"ix1945n" "NAND41"
"ix1423v" "xix1423"
"ix1423n" "NAND41"
"ix1597v" "xix1597"
"ix1597n" "NAND41"
"ix2319v" "xix2319"
"ix2319n" "NAND41"
"ix691v" "xix691"
"ix691n" "NAND41"
"ix1185v" "xix1185"
"ix1185n" "NAND41"
"ix1297v" "xix1297"
"ix1297n" "NAND41"
"ix1705v" "xix1705"
"ix1705n" "NAND41"
"ix985v" "xix985"
"ix985n" "NAND41"
"ix2247v" "xix2247"
"ix2247n" "NAND41"
"ix1479v" "xix1479"
"ix1479n" "NAND41"
"ix1451v" "xix1451"
"ix1451n" "NAND41"
"ix2243v" "xix2243"
"ix2243n" "NAND41"
"ix2475v" "xix2475"
"ix2475n" "NAND41"
"ix1757v" "xix1757"
"ix1757n" "NAND41"
"ix2441v" "xix2441"
"ix2441n" "NAND41"
"ix957v" "xix957"
"ix957n" "NAND41"
"ix1399v" "xix1399"
"ix1399n" "NAND41"
"ix393v" "xix393"
"ix393n" "NAND41"
"ix1027v" "xix1027"
"ix1027n" "NAND41"
"ix1351v" "xix1351"
"ix1351n" "NAND41"
"ix2277v" "xix2277"
"ix2277n" "NAND41"
"ix2505v" "xix2505"
"ix2505n" "NAND41"
"ix1651v" "xix1651"
"ix1651n" "NAND41"
"ix2101v" "xix2101"
"ix2101n" "NAND41"
"ix1101v" "xix1101"
"ix1101n" "NAND41"
"ix2137v" "xix2137"
"ix2137n" "NAND41"
"ix2409v" "xix2409"
"ix2409n" "NAND41"
"ix803v" "xix803"
"ix803n" "NAND41"
"ix1323v" "xix1323"
"ix1323n" "NAND41"
"ix2353v" "xix2353"
"ix2353n" "NAND41"
"ix1903v" "xix1903"
"ix1903n" "NAND41"
"ix1261v" "xix1261"
"ix1261n" "NAND41"
"ix18037v" "xix18037"
"ix18037n" "NOR31"
"ix18142v" "xix18142"
"ix18142n" "NOR31"
"ix18020v" "xix18020"
"ix18020n" "NOR31"
"ix18205v" "xix18205"
"ix18205n" "NOR31"
"ix18154v" "xix18154"
"ix18154n" "NOR31"
"ix151v" "xix151"
"ix151n" "NOR31"
"ix18010v" "xix18010"
"ix18010n" "NOR31"
"ix18218v" "xix18218"
"ix18218n" "NOR31"
"ix18171v" "xix18171"
"ix18171n" "NOR31"
"ix18659v" "xix18659"
"ix18659n" "NOR31"
"ix18125v" "xix18125"
"ix18125n" "NOR31"
"ix18106v" "xix18106"
"ix18106n" "NOR31"
"ix841v" "xix841"
"ix841n" "NOR31"
"ix869v" "xix869"
"ix869n" "OAI221"
"ix1807v" "xix1807"
"ix1807n" "OAI221"
"ix897v" "xix897"
"ix897n" "OAI221"
"ix279v" "xix279"
"ix279n" "OAI221"
"ix1529v" "xix1529"
"ix1529n" "OAI221"
"ix355v" "xix355"
"ix355n" "OAI221"
"ix2383v" "xix2383"
"ix2383n" "OAI221"
"ix321v" "xix321"
"ix321n" "OAI221"
"ix933v" "xix933"
"ix933n" "OAI221"
"ix1543v" "xix1543"
"ix1543n" "OAI221"
"ix711v" "xix711"
"ix711n" "OAI221"
"ix1507v" "xix1507"
"ix1507n" "OAI221"
"ix18627v" "xix18627"
"ix18627n" "NOR40"
"ix18542v" "xix18542"
"ix18542n" "NOR40"
"ix18596v" "xix18596"
"ix18596n" "NOR40"
"ix18073v" "xix18073"
"ix18073n" "NOR40"
"ix18614v" "xix18614"
"ix18614n" "NOR40"
"ix18546v" "xix18546"
"ix18546n" "NOR40"
"ix18514v" "xix18514"
"ix18514n" "NOR40"
"ix18261v" "xix18261"
"ix18261n" "NOR40"
"ix18463v" "xix18463"
"ix18463n" "NOR40"
"ix18474v" "xix18474"
"ix18474n" "NOR40"
"ix17481v" "xix17481"
"ix17481n" "NOR40"
"ix18111v" "xix18111"
"ix18111n" "NOR40"
"ix17587v" "xix17587"
"ix17587n" "NOR40"
"ix17724v" "xix17724"
"ix17724n" "NOR40"
"ix18325v" "xix18325"
"ix18325n" "NOR40"
"ix743v" "xix743"
"ix743n" "NOR40"
"ix18418v" "xix18418"
"ix18418n" "NOR40"
"ix18450v" "xix18450"
"ix18450n" "NOR40"
"ix18382v" "xix18382"
"ix18382n" "NOR40"
"ix18215v" "xix18215"
"ix18215n" "NOR40"
"ix18129v" "xix18129"
"ix18129n" "NOR40"
"ix17422v" "xix17422"
"ix17422n" "NOR40"
"ix18081v" "xix18081"
"ix18081n" "NOR40"
"ix17556v" "xix17556"
"ix17556n" "NOR40"
"ix18184v" "xix18184"
"ix18184n" "NOR40"
"ix18199v" "xix18199"
"ix18199n" "NOR40"
"ix17951v" "xix17951"
"ix17951n" "NOR40"
"ix18729v" "xix18729"
"ix18729n" "NOR40"
"ix17849v" "xix17849"
"ix17849n" "NOR40"
"ix18529v" "xix18529"
"ix18529n" "NOR40"
"ix18023v" "xix18023"
"ix18023n" "NOR40"
"ix18714v" "xix18714"
"ix18714n" "NOR40"
"ix18045v" "xix18045"
"ix18045n" "NOR40"
"ix18424v" "xix18424"
"ix18424n" "NOR40"
"ix18644v" "xix18644"
"ix18644n" "NOR40"
"ix18335v" "xix18335"
"ix18335n" "NOR40"
"ix18460v" "xix18460"
"ix18460n" "NOR40"
"ix18283v" "xix18283"
"ix18283n" "NOR40"
"ix18092v" "xix18092"
"ix18092n" "NOR40"
"ix18493v" "xix18493"
"ix18493n" "NOR40"
"ix18174v" "xix18174"
"ix18174n" "NOR40"
"ix18630v" "xix18630"
"ix18630n" "NOR40"
"ix18296v" "xix18296"
"ix18296n" "NOR40"
"ix18343v" "xix18343"
"ix18343n" "NOR40"
"ix18593v" "xix18593"
"ix18593n" "NOR40"
"ix18309v" "xix18309"
"ix18309n" "NOR40"
"ix17425v" "xix17425"
"ix17425n" "NOR40"
"ix18716v" "xix18716"
"ix18716n" "NOR40"
"ix18731v" "xix18731"
"ix18731n" "NOR40"
"ix18390v" "xix18390"
"ix18390n" "NOR40"
"ix17759v" "xix17759"
"ix17759n" "NOR40"
"ix18487v" "xix18487"
"ix18487n" "NOR40"
"ix18354v" "xix18354"
"ix18354n" "NOR40"
"ix18526v" "xix18526"
"ix18526n" "NOR40"
"ix18661v" "xix18661"
"ix18661n" "NOR40"
"ix18638v" "xix18638"
"ix18638n" "NOR40"
"ix18743v" "xix18743"
"ix18743n" "NOR40"
"ix17527v" "xix17527"
"ix17527n" "NOR40"
"ix18718v" "xix18718"
"ix18718n" "NOR40"
"ix18636v" "xix18636"
"ix18636n" "NOR40"
"ix17934v" "xix17934"
"ix17934n" "NOR40"
"ix18248v" "xix18248"
"ix18248n" "NOR40"
"ix18225v" "xix18225"
"ix18225n" "NOR40"
"ix18750v" "xix18750"
"ix18750n" "NOR40"
"ix18683v" "xix18683"
"ix18683n" "NOR40"
"ix18708v" "xix18708"
"ix18708n" "NOR40"
"ix18722v" "xix18722"
"ix18722n" "NOR40"
"ix18312v" "xix18312"
"ix18312n" "NOR40"
"ix18672v" "xix18672"
"ix18672n" "NOR40"
"ix18370v" "xix18370"
"ix18370n" "NOR40"
"ix18575v" "xix18575"
"ix18575n" "NOR40"
"ix18444v" "xix18444"
"ix18444n" "NOR40"
"ix17655v" "xix17655"
"ix17655n" "NOR40"
"ix18433v" "xix18433"
"ix18433n" "NOR40"
"ix17610v" "xix17610"
"ix17610n" "NOR40"
"ix18362v" "xix18362"
"ix18362n" "NOR40"
"ix17902v" "xix17902"
"ix17902n" "NOR40"
"ix18752v" "xix18752"
"ix18752n" "NOR40"
"ix18558v" "xix18558"
"ix18558n" "NOR40"
"ix18096v" "xix18096"
"ix18096n" "NOR40"
"ix18531v" "xix18531"
"ix18531n" "NOR40"
"ix18273v" "xix18273"
"ix18273n" "NOR40"
"ix18608v" "xix18608"
"ix18608n" "NOR40"
"ix18667v" "xix18667"
"ix18667n" "NOR40"
"ix18726v" "xix18726"
"ix18726n" "NOR40"
"ix18569v" "xix18569"
"ix18569n" "NOR40"
"ix18741v" "xix18741"
"ix18741n" "NOR40"
"ix18317v" "xix18317"
"ix18317n" "NOR40"
"ix17912v" "xix17912"
"ix17912n" "NOR40"
"ix18561v" "xix18561"
"ix18561n" "NOR40"
"ix17979v" "xix17979"
"ix17979n" "NOR40"
"ix18651v" "xix18651"
"ix18651n" "NOR40"
"ix17683v" "xix17683"
"ix17683n" "NOR40"
"ix18469v" "xix18469"
"ix18469n" "NOR40"
"ix17924v" "xix17924"
"ix17924n" "NOR40"
"ix18159v" "xix18159"
"ix18159n" "NOR40"
"ix17986v" "xix17986"
"ix17986n" "NOR40"
"ix18583v" "xix18583"
"ix18583n" "NOR40"
"ix18536v" "xix18536"
"ix18536n" "NOR40"
"ix471v" "xix471"
"ix471n" "NOR40"
"ix17899v" "xix17899"
"ix17899n" "NOR40"
"ix18438v" "xix18438"
"ix18438n" "NOR40"
"ix18738v" "xix18738"
"ix18738n" "NOR40"
"ix18754v" "xix18754"
"ix18754n" "NOR40"
"ix17999v" "xix17999"
"ix17999n" "NOR40"
"ix18456v" "xix18456"
"ix18456n" "NOR40"
"ix18695v" "xix18695"
"ix18695n" "NOR40"
"ix17638v" "xix17638"
"ix17638n" "NOR40"
"ix18301v" "xix18301"
"ix18301n" "NOR40"
"ix17696v" "xix17696"
"ix17696n" "NOR40"
"ix18711v" "xix18711"
"ix18711n" "NOR40"
"ix17967v" "xix17967"
"ix17967n" "NOR40"
"ix18509v" "xix18509"
"ix18509n" "NOR40"
"ix18447v" "xix18447"
"ix18447n" "NOR40"
"ix17791v" "xix17791"
"ix17791n" "NOR40"
"ix18735v" "xix18735"
"ix18735n" "NOR40"
"ix18633v" "xix18633"
"ix18633n" "NOR40"
"ix18114v" "xix18114"
"ix18114n" "NOR40"
"ix18415v" "xix18415"
"ix18415n" "NOR40"
"ix18601v" "xix18601"
"ix18601n" "NOR40"
"ix18676v" "xix18676"
"ix18676n" "NOR40"
"ix18551v" "xix18551"
"ix18551n" "NOR40"
"ix18264v" "xix18264"
"ix18264n" "NOR40"
"reg_reg_5v" "xreg_reg_5"
"reg_reg_5n" "DFC1"
"reg_reg_6v" "xreg_reg_6"
"reg_reg_6n" "DFC1"
"reg_reg_0v" "xreg_reg_0"
"reg_reg_0n" "DFC1"
"reg_reg_1v" "xreg_reg_1"
"reg_reg_1n" "DFC1"
"reg_reg_3v" "xreg_reg_3"
"reg_reg_3n" "DFC1"
"reg_reg_7v" "xreg_reg_7"
"reg_reg_7n" "DFC1"
"reg_reg_4v" "xreg_reg_4"
"reg_reg_4n" "DFC1"
"reg_reg_2v" "xreg_reg_2"
"reg_reg_2n" "DFC1"
"ix593v" "xix593"
"ix593n" "NOR21"
"ix163v" "xix163"
"ix163n" "NOR21"
"ix757v" "xix757"
"ix757n" "NOR21"
"ix433v" "xix433"
"ix433n" "NOR21"
"ix255v" "xix255"
"ix255n" "NOR21"
"ix755v" "xix755"
"ix755n" "NOR21"
"ix1019v" "xix1019"
"ix1019n" "NOR21"
"ix1407v" "xix1407"
"ix1407n" "NOR21"
"ix115v" "xix115"
"ix115n" "NOR21"
"ix1079v" "xix1079"
"ix1079n" "NOR21"
"ix17616v" "xix17616"
"ix17616n" "NOR21"
"ix25v" "xix25"
"ix25n" "NOR21"
"ix789v" "xix789"
"ix789n" "NOR21"
"ix787v" "xix787"
"ix787n" "NOR21"
"ix229v" "xix229"
"ix229n" "NOR21"
"ix131v" "xix131"
"ix131n" "NOR21"
"ix721v" "xix721"
"ix721n" "NOR21"
"ix249v" "xix249"
"ix249n" "NOR21"
"ix1375v" "xix1375"
"ix1375n" "NOR21"
"ix1373v" "xix1373"
"ix1373n" "NOR21"
"ix1711v" "xix1711"
"ix1711n" "NOR21"
"ix18655v" "xix18655"
"ix18655n" "NOR21"
"ix987v" "xix987"
"ix987n" "NOR21"
"ix1165v" "xix1165"
"ix1165n" "NOR21"
"ix437v" "xix437"
"ix437n" "NOR21"
"ix483v" "xix483"
"ix483n" "NOR21"
"ix667v" "xix667"
"ix667n" "NOR21"
"ix1173v" "xix1173"
"ix1173n" "NOR21"
"ix267v" "xix267"
"ix267n" "NOR21"
"ix245v" "xix245"
"ix245n" "NOR21"
"ix1157v" "xix1157"
"ix1157n" "NOR21"
"ix18207v" "xix18207"
"ix18207n" "NOR21"
"ix645v" "xix645"
"ix645n" "NOR21"
"ix959v" "xix959"
"ix959n" "NOR21"
"ix175v" "xix175"
"ix175n" "NOR21"
"ix733v" "xix733"
"ix733n" "NOR21"
"ix1113v" "xix1113"
"ix1113n" "NOR21"
"ix1433v" "xix1433"
"ix1433n" "NOR21"
"ix1427v" "xix1427"
"ix1427n" "NOR21"
"ix201v" "xix201"
"ix201n" "NOR21"
"ix913v" "xix913"
"ix913n" "NOR21"
"ix1005v" "xix1005"
"ix1005n" "NOR21"
"ix769v" "xix769"
"ix769n" "NOR21"
"ix1153v" "xix1153"
"ix1153n" "NOR21"
"ix81v" "xix81"
"ix81n" "NOR21"
"ix87v" "xix87"
"ix87n" "NOR21"
"ix635v" "xix635"
"ix635n" "NOR21"
"ix753v" "xix753"
"ix753n" "NOR21"
"ix679v" "xix679"
"ix679n" "NOR21"
"ix579v" "xix579"
"ix579n" "NOR21"
"ix1463v" "xix1463"
"ix1463n" "NOR21"
"ix1049v" "xix1049"
"ix1049n" "NOR21"
"ix1129v" "xix1129"
"ix1129n" "NOR21"
"ix617v" "xix617"
"ix617n" "NOR21"
"ix299v" "xix299"
"ix299n" "NOR21"
"ix427v" "xix427"
"ix427n" "NOR21"
"ix109v" "xix109"
"ix109n" "NOR21"
"ix731v" "xix731"
"ix731n" "NOR21"
"ix381v" "xix381"
"ix381n" "NOR21"
"ix265v" "xix265"
"ix265n" "NOR21"
"ix95v" "xix95"
"ix95n" "NOR21"
"ix619v" "xix619"
"ix619n" "NOR21"
"ix303v" "xix303"
"ix303n" "NOR21"
"ix671v" "xix671"
"ix671n" "NOR21"
"ix1105v" "xix1105"
"ix1105n" "NOR21"
"ix1125v" "xix1125"
"ix1125n" "NOR21"
"ix61v" "xix61"
"ix61n" "NOR21"
"ix179v" "xix179"
"ix179n" "NOR21"
"ix1075v" "xix1075"
"ix1075n" "NOR21"
"ix223v" "xix223"
"ix223n" "NOR21"
"ix271v" "xix271"
"ix271n" "NOR21"
"ix577v" "xix577"
"ix577n" "NOR21"
"ix1067v" "xix1067"
"ix1067n" "NOR21"
"ix683v" "xix683"
"ix683n" "NOR21"
"ix557v" "xix557"
"ix557n" "NOR21"
"ix127v" "xix127"
"ix127n" "NOR21"
"ix649v" "xix649"
"ix649n" "NOR21"
"ix999v" "xix999"
"ix999n" "NOR21"
"ix63v" "xix63"
"ix63n" "NOR21"
"ix1347v" "xix1347"
"ix1347n" "NOR21"
"ix331v" "xix331"
"ix331n" "NOR21"
"ix511v" "xix511"
"ix511n" "NOR21"
"ix215v" "xix215"
"ix215n" "NOR21"
"ix655v" "xix655"
"ix655n" "NOR21"
"ix479v" "xix479"
"ix479n" "NOR21"
"ix475v" "xix475"
"ix475n" "NOR21"
"ix365v" "xix365"
"ix365n" "NOR21"
"ix1039v" "xix1039"
"ix1039n" "NOR21"
"ix97v" "xix97"
"ix97n" "NOR21"
"ix101v" "xix101"
"ix101n" "NOR21"
"ix185v" "xix185"
"ix185n" "NOR21"
"ix191v" "xix191"
"ix191n" "NOR21"
"ix1723v" "xix1723"
"ix1723n" "NOR21"
"ix1013v" "xix1013"
"ix1013n" "NOR21"
"ix601v" "xix601"
"ix601n" "NOR21"
"ix1163v" "xix1163"
"ix1163n" "NOR21"
"ix167v" "xix167"
"ix167n" "NOR21"
"ix717v" "xix717"
"ix717n" "NOR21"
"ix509v" "xix509"
"ix509n" "NOR21"
"ix59v" "xix59"
"ix59n" "NOR21"
"ix657v" "xix657"
"ix657n" "NOR21"
"ix17803v" "xix17803"
"ix17803n" "NOR21"
"ix2149v" "xix2149"
"ix2149n" "NOR21"
"ix351v" "xix351"
"ix351n" "NOR21"
"ix523v" "xix523"
"ix523n" "NOR21"
"ix501v" "xix501"
"ix501n" "NOR21"
"ix333v" "xix333"
"ix333n" "NOR21"
"ix533v" "xix533"
"ix533n" "NOR21"
"ix673v" "xix673"
"ix673n" "NOR21"
"ix775v" "xix775"
"ix775n" "NOR21"
"ix18194v" "xix18194"
"ix18194n" "NOR21"
"ix489v" "xix489"
"ix489n" "NOR21"
"ix1093v" "xix1093"
"ix1093n" "NOR21"
"ix45v" "xix45"
"ix45n" "NOR21"
"ix1389v" "xix1389"
"ix1389n" "NOR21"
"ix561v" "xix561"
"ix561n" "NOR21"
"ix18086v" "xix18086"
"ix18086n" "NOR21"
"ix883v" "xix883"
"ix883n" "NOR21"
"ix17686v" "xix17686"
"ix17686n" "NOR21"
"ix623v" "xix623"
"ix623n" "NOR21"
"ix51v" "xix51"
"ix51n" "NOR21"
"ix575v" "xix575"
"ix575n" "NOR21"
"ix1147v" "xix1147"
"ix1147n" "NOR21"
"ix527v" "xix527"
"ix527n" "NOR21"
"ix1441v" "xix1441"
"ix1441n" "NOR21"
"ix33v" "xix33"
"ix33n" "NOR21"
"ix697v" "xix697"
"ix697n" "NOR21"
"ix285v" "xix285"
"ix285n" "CLKIN1"
"ix171v" "xix171"
"ix171n" "CLKIN1"
"ix341v" "xix341"
"ix341n" "CLKIN1"
"ix367v" "xix367"
"ix367n" "CLKIN1"
"ix605v" "xix605"
"ix605n" "CLKIN1"
"ix1189v" "xix1189"
"ix1189n" "CLKIN1"
"ix1869v" "xix1869"
"ix1869n" "CLKIN1"
"ix93v" "xix93"
"ix93n" "CLKIN1"
"ix18564v" "xix18564"
"ix18564n" "CLKIN1"
"ix409v" "xix409"
"ix409n" "CLKIN1"
"ix281v" "xix281"
"ix281n" "CLKIN1"
"ix17797v" "xix17797"
"ix17797n" "CLKIN1"
"ix2357v" "xix2357"
"ix2357n" "CLKIN1"
"ix23v" "xix23"
"ix23n" "CLKIN1"
"ix1967v" "xix1967"
"ix1967n" "CLKIN1"
"ix435v" "xix435"
"ix435n" "CLKIN1"
"ix15v" "xix15"
"ix15n" "CLKIN1"
"ix17762v" "xix17762"
"ix17762n" "CLKIN1"
"ix18152v" "xix18152"
"ix18152n" "CLKIN1"
"ix765v" "xix765"
"ix765n" "CLKIN1"
"ix493v" "xix493"
"ix493n" "CLKIN1"
"ix18466v" "xix18466"
"ix18466n" "CLKIN1"
"ix18267v" "xix18267"
"ix18267n" "CLKIN1"
"ix147v" "xix147"
"ix147n" "CLKIN1"
"ix553v" "xix553"
"ix553n" "CLKIN1"
"ix121v" "xix121"
"ix121n" "CLKIN1"
"ix17702v" "xix17702"
"ix17702n" "CLKIN1"
"ix3v" "xix3"
"ix3n" "CLKIN1"
"ix17716v" "xix17716"
"ix17716n" "CLKIN1"
"ix1721v" "xix1721"
"ix1721n" "CLKIN1"
"ix18104v" "xix18104"
"ix18104n" "CLKIN1"
"ix515v" "xix515"
"ix515n" "CLKIN1"
"ix17824v" "xix17824"
"ix17824n" "CLKIN1"
"ix2509v" "xix2509"
"ix2509n" "CLKIN1"
"ix57v" "xix57"
"ix57n" "CLKIN1"
"ix17503v" "xix17503"
"ix17503n" "CLKIN1"
"ix2183v" "xix2183"
"ix2183n" "CLKIN1"
"ix18168v" "xix18168"
"ix18168n" "CLKIN1"
"ix7v" "xix7"
"ix7n" "CLKIN1"
"ix317v" "xix317"
"ix317n" "CLKIN1"
"ix403v" "xix403"
"ix403n" "CLKIN1"
"ix291v" "xix291"
"ix291n" "CLKIN1"
"ix17943v" "xix17943"
"ix17943n" "CLKIN1"
"ix18385v" "xix18385"
"ix18385n" "CLKIN1"
"ix18140v" "xix18140"
"ix18140n" "CLKIN1"
"ix889v" "xix889"
"ix889n" "CLKIN1"
"ix18315v" "xix18315"
"ix18315n" "CLKIN1"
"ix1055v" "xix1055"
"ix1055n" "CLKIN1"
"ix17711v" "xix17711"
"ix17711n" "CLKIN1"
"ix17996v" "xix17996"
"ix17996n" "CLKIN1"
"ix465v" "xix465"
"ix465n" "CLKIN1"
"ix643v" "xix643"
"ix643n" "CLKIN1"
"ix745v" "xix745"
"ix745n" "CLKIN1"
"ix18428v" "xix18428"
"ix18428n" "CLKIN1"
"ix559v" "xix559"
"ix559n" "CLKIN1"
"ix1041v" "xix1041"
"ix1041n" "CLKIN1"
"ix9v" "xix9"
"ix9n" "CLKIN1"
"ix399v" "xix399"
"ix399n" "CLKIN1"
"ix18611v" "xix18611"
"ix18611n" "CLKIN1"
"ix18664v" "xix18664"
"ix18664n" "CLKIN1"
"ix153v" "xix153"
"ix153n" "CLKIN1"
"ix133v" "xix133"
"ix133n" "CLKIN1"
"ix17920v" "xix17920"
"ix17920n" "CLKIN1"
"ix1117v" "xix1117"
"ix1117n" "CLKIN1"
"ix17565v" "xix17565"
"ix17565n" "CLKIN1"
"ix759v" "xix759"
"ix759n" "CLKIN1"
"ix1369v" "xix1369"
"ix1369n" "CLKIN1"
"ix17428v" "xix17428"
"ix17428n" "CLKIN1"
"ix1381v" "xix1381"
"ix1381n" "CLKIN1"
"ix17544v" "xix17544"
"ix17544n" "CLKIN1"
"ix963v" "xix963"
"ix963n" "CLKIN1"
"ix1413v" "xix1413"
"ix1413n" "CLKIN1"
"ix17869v" "xix17869"
"ix17869n" "CLKIN1"
"ix1991v" "xix1991"
"ix1991n" "CLKIN1"
"ix17858v" "xix17858"
"ix17858n" "CLKIN1"
"ix505v" "xix505"
"ix505n" "CLKIN1"
"ix18472v" "xix18472"
"ix18472n" "CLKIN1"
"ix18504v" "xix18504"
"ix18504n" "CLKIN1"
"ix1177v" "xix1177"
"ix1177n" "CLKIN1"
"ix17693v" "xix17693"
"ix17693n" "CLKIN1"
"ix18307v" "xix18307"
"ix18307n" "CLKIN1"
"ix1111v" "xix1111"
"ix1111n" "CLKIN1"
"ix17866v" "xix17866"
"ix17866n" "CLKIN1"
"ix17636v" "xix17636"
"ix17636n" "CLKIN1"
"ix17854v" "xix17854"
"ix17854n" "CLKIN1"
"ix199v" "xix199"
"ix199n" "CLKIN1"
"ix1307v" "xix1307"
"ix1307n" "CLKIN1"
"ix17619v" "xix17619"
"ix17619n" "CLKIN1"
"ix17888v" "xix17888"
"ix17888n" "CLKIN1"
"ix385v" "xix385"
"ix385n" "CLKIN1"
"ix851v" "xix851"
"ix851n" "CLKIN1"
"ix395v" "xix395"
"ix395n" "CLKIN1"
"ix17590v" "xix17590"
"ix17590n" "CLKIN1"
"ix18288v" "xix18288"
"ix18288n" "CLKIN1"
"ix17554v" "xix17554"
"ix17554n" "CLKIN1"
"ix18357v" "xix18357"
"ix18357n" "CLKIN1"
"ix18135v" "xix18135"
"ix18135n" "CLKIN1"
"ix17785v" "xix17785"
"ix17785n" "CLKIN1"
"ix18008v" "xix18008"
"ix18008n" "CLKIN1"
"ix17928v" "xix17928"
"ix17928n" "CLKIN1"
"ix17991v" "xix17991"
"ix17991n" "CLKIN1"
"ix18006v" "xix18006"
"ix18006n" "CLKIN1"
"ix18647v" "xix18647"
"ix18647n" "CLKIN1"
"ix18197v" "xix18197"
"ix18197n" "CLKIN1"
"ix18352v" "xix18352"
"ix18352n" "CLKIN1"
"ix18090v" "xix18090"
"ix18090n" "CLKIN1"
"ix17983v" "xix17983"
"ix17983n" "CLKIN1"
"ix621v" "xix621"
"ix621n" "CLKIN1"
"ix1313v" "xix1313"
"ix1313n" "CLKIN1"
"ix499v" "xix499"
"ix499n" "CLKIN1"
"ix793v" "xix793"
"ix793n" "CLKIN1"
"ix18348v" "xix18348"
"ix18348n" "CLKIN1"
"ix337v" "xix337"
"ix337n" "CLKIN1"
"ix18031v" "xix18031"
"ix18031n" "CLKIN1"
"ix231v" "xix231"
"ix231n" "CLKIN1"
"ix681v" "xix681"
"ix681n" "CLKIN1"
"ix253v" "xix253"
"ix253n" "CLKIN1"
"ix447v" "xix447"
"ix447n" "CLKIN1"
"ix17894v" "xix17894"
"ix17894n" "CLKIN1"
"ix18393v" "xix18393"
"ix18393n" "CLKIN1"
"ix18690v" "xix18690"
"ix18690n" "CLKIN1"
"ix1287v" "xix1287"
"ix1287n" "CLKIN1"
"ix18026v" "xix18026"
"ix18026n" "CLKIN1"
"ix629v" "xix629"
"ix629n" "CLKIN1"
"ix929v" "xix929"
"ix929n" "CLKIN1"
"ix18068v" "xix18068"
"ix18068n" "CLKIN1"
"ix18189v" "xix18189"
"ix18189n" "CLKIN1"
"ix795v" "xix795"
"ix795n" "CLKIN1"
"ix2131v" "xix2131"
"ix2131n" "CLKIN1"
"ix2155v" "xix2155"
"ix2155n" "CLKIN1"
"ix17v" "xix17"
"ix17n" "CLKIN1"
"ix65v" "xix65"
"ix65n" "CLKIN1"
"ix941v" "xix941"
"ix941n" "CLKIN1"
"ix977v" "xix977"
"ix977n" "CLKIN1"
"ix551v" "xix551"
"ix551n" "CLKIN1"
"ix1457v" "xix1457"
"ix1457n" "CLKIN1"
"ix18421v" "xix18421"
"ix18421n" "CLKIN1"
"ix17641v" "xix17641"
"ix17641n" "CLKIN1"
"ix17661v" "xix17661"
"ix17661n" "CLKIN1"
"ix379v" "xix379"
"ix379n" "CLKIN1"
"ix1v" "xix1"
"ix1n" "CLKIN1"
"ix13v" "xix13"
"ix13n" "CLKIN1"
"ix18234v" "xix18234"
"ix18234n" "CLKIN1"
"ix18320v" "xix18320"
"ix18320n" "CLKIN1"
"ix39v" "xix39"
"ix39n" "CLKIN1"
"ix17965v" "xix17965"
"ix17965n" "CLKIN1"
"ix17977v" "xix17977"
"ix17977n" "CLKIN1"
"ix1077v" "xix1077"
"ix1077n" "CLKIN1"
"ix1533v" "xix1533"
"ix1533n" "CLKIN1"
"ix1103v" "xix1103"
"ix1103n" "CLKIN1"
"ix18622v" "xix18622"
"ix18622n" "CLKIN1"
"ix807v" "xix807"
"ix807n" "CLKIN1"
"ix1761v" "xix1761"
"ix1761n" "CLKIN1"
"ix615v" "xix615"
"ix615n" "CLKIN1"
"ix18692v" "xix18692"
"ix18692n" "CLKIN1"
"ix949v" "xix949"
"ix949n" "CLKIN1"
"ix327v" "xix327"
"ix327n" "CLKIN1"
"ix453v" "xix453"
"ix453n" "CLKIN1"
"ix18163v" "xix18163"
"ix18163n" "CLKIN1"
"ix79v" "xix79"
"ix79n" "CLKIN1"
"ix257v" "xix257"
"ix257n" "CLKIN1"
"ix18380v" "xix18380"
"ix18380n" "CLKIN1"
"ix1145v" "xix1145"
"ix1145n" "CLKIN1"
"ix1841v" "xix1841"
"ix1841n" "CLKIN1"
"ix487v" "xix487"
"ix487n" "CLKIN1"
"ix18099v" "xix18099"
"ix18099n" "CLKIN1"
"ix17771v" "xix17771"
"ix17771n" "CLKIN1"
"ix1127v" "xix1127"
"ix1127n" "CLKIN1"
"ix17844v" "xix17844"
"ix17844n" "CLKIN1"
"ix18121v" "xix18121"
"ix18121n" "CLKIN1"
"ix1439v" "xix1439"
"ix1439n" "CLKIN1"
"ix2073v" "xix2073"
"ix2073n" "CLKIN1"
"ix18229v" "xix18229"
"ix18229n" "CLKIN1"
"ix17882v" "xix17882"
"ix17882n" "CLKIN1"
"ix701v" "xix701"
"ix701n" "CLKIN1"
"ix659v" "xix659"
"ix659n" "CLKIN1"
"ix363v" "xix363"
"ix363n" "CLKIN1"
"ix17931v" "xix17931"
"ix17931n" "CLKIN1"
"ix18145v" "xix18145"
"ix18145n" "CLKIN1"
"ix1253v" "xix1253"
"ix1253n" "CLKIN1"
"ix473v" "xix473"
"ix473n" "CLKIN1"
"ix417v" "xix417"
"ix417n" "CLKIN1"
"ix729v" "xix729"
"ix729n" "CLKIN1"
"ix1587v" "xix1587"
"ix1587n" "CLKIN1"
"ix263v" "xix263"
"ix263n" "CLKIN1"
"ix18453v" "xix18453"
"ix18453n" "CLKIN1"
"ix1303v" "xix1303"
"ix1303n" "CLKIN1"
"ix29v" "xix29"
"ix29n" "CLKIN1"
"ix27v" "xix27"
"ix27n" "CLKIN1"
"ix18680v" "xix18680"
"ix18680n" "CLKIN1"
"ix43v" "xix43"
"ix43n" "CLKIN1"
"ix18149v" "xix18149"
"ix18149n" "NAND21"
"ix18055v" "xix18055"
"ix18055n" "NAND21"
"ix18338v" "xix18338"
"ix18338n" "NAND21"
"ix17551v" "xix17551"
"ix17551n" "NAND21"
"ix17676v" "xix17676"
"ix17676n" "NAND21"
"ix18015v" "xix18015"
"ix18015n" "NAND21"
"ix17788v" "xix17788"
"ix17788n" "NAND21"
"ix951v" "xix951"
"ix951n" "NAND21"
"ix2289v" "xix2289"
"ix2289n" "NAND21"
"ix18002v" "xix18002"
"ix18002n" "NAND21"
"ix17468v" "xix17468"
"ix17468n" "NAND21"
"ix17875v" "xix17875"
"ix17875n" "NAND21"
"ix18179v" "xix18179"
"ix18179n" "NAND21"
"ix17648v" "xix17648"
"ix17648n" "NAND21"
"ix1131v" "xix1131"
"ix1131n" "NAND21"
"ix17519v" "xix17519"
"ix17519n" "NAND21"
"ix17852v" "xix17852"
"ix17852n" "NAND21"
"ix18033v" "xix18033"
"ix18033n" "NAND21"
"ix925v" "xix925"
"ix925n" "NAND21"
"ix17782v" "xix17782"
"ix17782n" "NAND21"
"ix685v" "xix685"
"ix685n" "NAND21"
"ix1403v" "xix1403"
"ix1403n" "NAND21"
"ix517v" "xix517"
"ix517n" "NAND21"
"ix17497v" "xix17497"
"ix17497n" "NAND21"
"ix17885v" "xix17885"
"ix17885n" "NAND21"
"ix1015v" "xix1015"
"ix1015n" "NAND21"
"ix18063v" "xix18063"
"ix18063n" "NAND21"
"ix17746v" "xix17746"
"ix17746n" "NAND21"
"ix18066v" "xix18066"
"ix18066n" "NAND21"
"ix17842v" "xix17842"
"ix17842n" "NAND21"
"ix18013v" "xix18013"
"ix18013n" "NAND21"
"ix18117v" "xix18117"
"ix18117n" "NAND21"
"ix611v" "xix611"
"ix611n" "NAND21"
"ix17860v" "xix17860"
"ix17860n" "NAND21"
"ix18242v" "xix18242"
"ix18242n" "NAND21"
"ix17864v" "xix17864"
"ix17864n" "NAND21"
"ix1179v" "xix1179"
"ix1179n" "NAND21"
"ix17819v" "xix17819"
"ix17819n" "NAND21"
"ix2341v" "xix2341"
"ix2341n" "NAND21"
"ix1893v" "xix1893"
"ix1893n" "NAND21"
"ix637v" "xix637"
"ix637n" "NAND21"
"ix17516v" "xix17516"
"ix17516n" "NAND21"
"ix17838v" "xix17838"
"ix17838n" "NAND21"
"ix17905v" "xix17905"
"ix17905n" "NAND21"
"ix18360v" "xix18360"
"ix18360n" "NAND21"
"ix17973v" "xix17973"
"ix17973n" "NAND21"
"ix2249v" "xix2249"
"ix2249n" "NAND21"
"ix18278v" "xix18278"
"ix18278n" "NAND21"
"ix2105v" "xix2105"
"ix2105n" "NAND21"
"ix17705v" "xix17705"
"ix17705n" "NAND21"
"ix18590v" "xix18590"
"ix18590n" "NAND21"
"ix783v" "xix783"
"ix783n" "NAND21"
"ix18304v" "xix18304"
"ix18304n" "NAND21"
"ix17764v" "xix17764"
"ix17764n" "NAND21"
"ix17768v" "xix17768"
"ix17768n" "NAND21"
"ix17908v" "xix17908"
"ix17908n" "NAND21"
"ix17613v" "xix17613"
"ix17613n" "NAND21"
"ix1871v" "xix1871"
"ix1871n" "NAND21"
"ix17708v" "xix17708"
"ix17708n" "NAND21"
"ix18165v" "xix18165"
"ix18165n" "NAND21"
"ix1875v" "xix1875"
"ix1875n" "NAND21"
"ix18376v" "xix18376"
"ix18376n" "NAND21"
"ix1149v" "xix1149"
"ix1149n" "NAND21"
"ix1061v" "xix1061"
"ix1061n" "NAND21"
"ix17633v" "xix17633"
"ix17633n" "NAND21"
"ix1969v" "xix1969"
"ix1969n" "NAND21"
"ix369v" "xix369"
"ix369n" "NAND21"
"ix17674v" "xix17674"
"ix17674n" "NAND21"
"ix18549v" "xix18549"
"ix18549n" "NAND21"
"ix17597v" "xix17597"
"ix17597n" "NAND21"
"ix423v" "xix423"
"ix423n" "NAND21"
"ix17491v" "xix17491"
"ix17491n" "NAND21"
"ix1751v" "xix1751"
"ix1751n" "NAND21"
"ix17994v" "xix17994"
"ix17994n" "NAND21"
"ix1843v" "xix1843"
"ix1843n" "NAND21"
"ix17537v" "xix17537"
"ix17537n" "NAND21"
"ix1273v" "xix1273"
"ix1273n" "NAND21"
"ix18572v" "xix18572"
"ix18572n" "NAND21"
"ix18346v" "xix18346"
"ix18346n" "NAND21"
"ix17627v" "xix17627"
"ix17627n" "NAND21"
"ix17829v" "xix17829"
"ix17829n" "NAND21"
"ix17679v" "xix17679"
"ix17679n" "NAND21"
"ix18058v" "xix18058"
"ix18058n" "NAND21"
"ix17722v" "xix17722"
"ix17722n" "NAND21"
"ix17533v" "xix17533"
"ix17533n" "NAND21"
"ix17780v" "xix17780"
"ix17780n" "NAND21"
"ix2123v" "xix2123"
"ix2123n" "NAND21"
"ix18330v" "xix18330"
"ix18330n" "NAND21"
"ix17540v" "xix17540"
"ix17540n" "NAND21"
"ix17757v" "xix17757"
"ix17757n" "NAND21"
"ix17431v" "xix17431"
"ix17431n" "NAND21"
"ix18408v" "xix18408"
"ix18408n" "NAND21"
"ix17806v" "xix17806"
"ix17806n" "NAND21"
"ix1981v" "xix1981"
"ix1981n" "NAND21"
"ix17940v" "xix17940"
"ix17940n" "NAND21"
"ix17651v" "xix17651"
"ix17651n" "NAND21"
"ix607v" "xix607"
"ix607n" "NAND21"
"ix17915v" "xix17915"
"ix17915n" "NAND21"
"ix17630v" "xix17630"
"ix17630n" "NAND21"
"ix17937v" "xix17937"
"ix17937n" "NAND21"
"ix18294v" "xix18294"
"ix18294n" "NAND21"
"ix17959v" "xix17959"
"ix17959n" "NAND21"
"ix17922v" "xix17922"
"ix17922n" "NAND21"
"ix17880v" "xix17880"