HEADER
"PSFversion" "1.00"
"epv" "ep"
"env" "en"
"outv" "out"
"inv" "in"
