HEADER
"PSFversion" "1.00"
"mp1v" "MP1"
"mp1n" "PRIMLIB_pmos4_hspiceD"
"mn1v" "MN1"
"mn1n" "PRIMLIB_nmos4_hspiceD"
"(FUNCTION (plus (root \"MP1/S\") (root \"MN1/S\")))v" "in"
"(FUNCTION (plus (root \"MN1/G\")))v" "en"
"(FUNCTION (plus (root \"MP1/G\")))v" "ep"
"(FUNCTION (plus (root \"MP1/D\") (root \"MN1/D\")))v" "out"
