HEADER
"PSFversion" "1.00"
"Av" "a"
"Qv" "q"
"net8v" "net8"
"Bv" "b"
