HEADER
"PSFversion" "1.00"
"av" "A"
"qv" "Q"
"net8v" "net8"
"bv" "B"
